<?xml version="1.0" encoding="UTF-8"?>

<!-- generated on 2023-04-04 14:12:34 by Eclipse SUMO sumo Version 1.16.0
<configuration xmlns:xsi="http://www.w3.org/2001/XMLSchema-instance" xsi:noNamespaceSchemaLocation="http://sumo.dlr.de/xsd/sumoConfiguration.xsd">

    <input>
        <net-file value="c:\Users\aryak\Projects\cf-sumo\sumo-xml\net.net.xml"/>
    </input>

    <output>
        <fcd-output value="c:\Users\aryak\Projects\cf-sumo\sumo-xml\output\221_fcd.xml"/>
        <fcd-output.acceleration value="true"/>
    </output>

    <time>
        <step-length value="0.1"/>
    </time>

    <report>
        <no-step-log value="true"/>
    </report>

    <traci_server>
        <remote-port value="64771"/>
    </traci_server>

</configuration>
-->

<fcd-export xmlns:xsi="http://www.w3.org/2001/XMLSchema-instance" xsi:noNamespaceSchemaLocation="http://sumo.dlr.de/xsd/fcd_file.xsd">
    <timestep time="0.00">
        <vehicle id="leader" x="563.63" y="732.32" angle="74.99" type="DEFAULT_VEHTYPE@leader" speed="10.35" pos="5.10" lane="E2_0" slope="0.00" acceleration="0.00"/>
    </timestep>
    <timestep time="0.10">
        <vehicle id="leader" x="564.65" y="732.59" angle="74.99" type="DEFAULT_VEHTYPE@leader" speed="10.55" pos="6.15" lane="E2_0" slope="0.00" acceleration="2.00"/>
    </timestep>
    <timestep time="0.20">
        <vehicle id="leader" x="565.67" y="732.87" angle="74.99" type="DEFAULT_VEHTYPE@leader" speed="10.63" pos="7.22" lane="E2_0" slope="0.00" acceleration="0.80"/>
    </timestep>
    <timestep time="0.30">
        <vehicle id="leader" x="566.69" y="733.14" angle="74.99" type="DEFAULT_VEHTYPE@leader" speed="10.53" pos="8.27" lane="E2_0" slope="0.00" acceleration="-1.00"/>
    </timestep>
    <timestep time="0.40">
        <vehicle id="leader" x="567.70" y="733.41" angle="74.99" type="DEFAULT_VEHTYPE@leader" speed="10.48" pos="9.32" lane="E2_0" slope="0.00" acceleration="-0.50"/>
    </timestep>
    <timestep time="0.50">
        <vehicle id="leader" x="568.73" y="733.69" angle="74.99" type="DEFAULT_VEHTYPE@leader" speed="10.66" pos="10.39" lane="E2_0" slope="0.00" acceleration="1.80"/>
    </timestep>
    <timestep time="0.60">
        <vehicle id="leader" x="569.77" y="733.97" angle="74.99" type="DEFAULT_VEHTYPE@leader" speed="10.78" pos="11.46" lane="E2_0" slope="0.00" acceleration="1.20"/>
    </timestep>
    <timestep time="0.70">
        <vehicle id="leader" x="570.81" y="734.25" angle="74.99" type="DEFAULT_VEHTYPE@leader" speed="10.78" pos="12.54" lane="E2_0" slope="0.00" acceleration="0.00"/>
    </timestep>
    <timestep time="0.80">
        <vehicle id="leader" x="571.85" y="734.53" angle="74.99" type="DEFAULT_VEHTYPE@leader" speed="10.78" pos="13.62" lane="E2_0" slope="0.00" acceleration="0.00"/>
    </timestep>
    <timestep time="0.90">
        <vehicle id="leader" x="572.90" y="734.81" angle="74.99" type="DEFAULT_VEHTYPE@leader" speed="10.82" pos="14.70" lane="E2_0" slope="0.00" acceleration="0.40"/>
    </timestep>
    <timestep time="1.00">
        <vehicle id="leader" x="573.94" y="735.09" angle="74.99" type="DEFAULT_VEHTYPE@leader" speed="10.82" pos="15.78" lane="E2_0" slope="0.00" acceleration="0.00"/>
    </timestep>
    <timestep time="1.10">
        <vehicle id="leader" x="574.99" y="735.37" angle="74.99" type="DEFAULT_VEHTYPE@leader" speed="10.82" pos="16.87" lane="E2_0" slope="0.00" acceleration="0.00"/>
    </timestep>
    <timestep time="1.20">
        <vehicle id="leader" x="576.03" y="735.65" angle="74.99" type="DEFAULT_VEHTYPE@leader" speed="10.82" pos="17.95" lane="E2_0" slope="0.00" acceleration="0.00"/>
    </timestep>
    <timestep time="1.30">
        <vehicle id="leader" x="577.10" y="735.93" angle="74.99" type="DEFAULT_VEHTYPE@leader" speed="11.06" pos="19.05" lane="E2_0" slope="0.00" acceleration="2.40"/>
    </timestep>
    <timestep time="1.40">
        <vehicle id="leader" x="578.18" y="736.22" angle="74.99" type="DEFAULT_VEHTYPE@leader" speed="11.16" pos="20.17" lane="E2_0" slope="0.00" acceleration="1.00"/>
    </timestep>
    <timestep time="1.50">
        <vehicle id="leader" x="579.26" y="736.51" angle="74.99" type="DEFAULT_VEHTYPE@leader" speed="11.19" pos="21.29" lane="E2_0" slope="0.00" acceleration="0.30"/>
    </timestep>
    <timestep time="1.60">
        <vehicle id="leader" x="580.35" y="736.80" angle="74.99" type="DEFAULT_VEHTYPE@leader" speed="11.27" pos="22.42" lane="E2_0" slope="0.00" acceleration="0.80"/>
    </timestep>
    <timestep time="1.70">
        <vehicle id="leader" x="581.44" y="737.10" angle="74.99" type="DEFAULT_VEHTYPE@leader" speed="11.27" pos="23.54" lane="E2_0" slope="0.00" acceleration="0.00"/>
    </timestep>
    <timestep time="1.80">
        <vehicle id="leader" x="582.53" y="737.39" angle="74.99" type="DEFAULT_VEHTYPE@leader" speed="11.27" pos="24.67" lane="E2_0" slope="0.00" acceleration="0.00"/>
    </timestep>
    <timestep time="1.90">
        <vehicle id="leader" x="583.63" y="737.68" angle="74.99" type="DEFAULT_VEHTYPE@leader" speed="11.46" pos="25.82" lane="E2_0" slope="0.00" acceleration="1.90"/>
    </timestep>
    <timestep time="2.00">
        <vehicle id="leader" x="584.75" y="737.98" angle="74.99" type="DEFAULT_VEHTYPE@leader" speed="11.51" pos="26.97" lane="E2_0" slope="0.00" acceleration="0.50"/>
    </timestep>
    <timestep time="2.10">
        <vehicle id="leader" x="585.87" y="738.28" angle="74.99" type="DEFAULT_VEHTYPE@leader" speed="11.63" pos="28.13" lane="E2_0" slope="0.00" acceleration="1.20"/>
    </timestep>
    <timestep time="2.20">
        <vehicle id="leader" x="587.01" y="738.59" angle="74.99" type="DEFAULT_VEHTYPE@leader" speed="11.76" pos="29.30" lane="E2_0" slope="0.00" acceleration="1.30"/>
    </timestep>
    <timestep time="2.30">
        <vehicle id="leader" x="588.15" y="738.89" angle="74.99" type="DEFAULT_VEHTYPE@leader" speed="11.82" pos="30.49" lane="E2_0" slope="0.00" acceleration="0.60"/>
    </timestep>
    <timestep time="2.40">
        <vehicle id="leader" x="589.29" y="739.20" angle="74.99" type="DEFAULT_VEHTYPE@leader" speed="11.82" pos="31.67" lane="E2_0" slope="0.00" acceleration="0.00"/>
    </timestep>
    <timestep time="2.50">
        <vehicle id="leader" x="590.43" y="739.51" angle="74.99" type="DEFAULT_VEHTYPE@leader" speed="11.84" pos="32.85" lane="E2_0" slope="0.00" acceleration="0.20"/>
    </timestep>
    <timestep time="2.60">
        <vehicle id="leader" x="591.60" y="739.82" angle="74.99" type="DEFAULT_VEHTYPE@leader" speed="12.04" pos="34.06" lane="E2_0" slope="0.00" acceleration="2.00"/>
    </timestep>
    <timestep time="2.70">
        <vehicle id="leader" x="592.76" y="740.13" angle="74.99" type="DEFAULT_VEHTYPE@leader" speed="12.04" pos="35.26" lane="E2_0" slope="0.00" acceleration="0.00"/>
    </timestep>
    <timestep time="2.80">
        <vehicle id="leader" x="593.94" y="740.45" angle="74.99" type="DEFAULT_VEHTYPE@leader" speed="12.19" pos="36.48" lane="E2_0" slope="0.00" acceleration="1.50"/>
    </timestep>
    <timestep time="2.90">
        <vehicle id="leader" x="595.13" y="740.77" angle="74.99" type="DEFAULT_VEHTYPE@leader" speed="12.37" pos="37.72" lane="E2_0" slope="0.00" acceleration="1.80"/>
    </timestep>
    <timestep time="3.00">
        <vehicle id="follower" x="563.63" y="732.32" angle="74.99" type="DEFAULT_VEHTYPE@follower" speed="10.35" pos="5.10" lane="E2_0" slope="0.00" acceleration="0.00"/>
        <vehicle id="leader" x="596.33" y="741.09" angle="74.99" type="DEFAULT_VEHTYPE@leader" speed="12.37" pos="38.95" lane="E2_0" slope="0.00" acceleration="0.00"/>
    </timestep>
    <timestep time="3.10">
        <vehicle id="follower" x="564.65" y="732.59" angle="74.99" type="DEFAULT_VEHTYPE@follower" speed="10.55" pos="6.16" lane="E2_0" slope="0.00" acceleration="2.04"/>
        <vehicle id="leader" x="597.52" y="741.41" angle="74.99" type="DEFAULT_VEHTYPE@leader" speed="12.37" pos="40.19" lane="E2_0" slope="0.00" acceleration="0.00"/>
    </timestep>
    <timestep time="3.20">
        <vehicle id="follower" x="565.69" y="732.87" angle="74.99" type="DEFAULT_VEHTYPE@follower" speed="10.77" pos="7.23" lane="E2_0" slope="0.00" acceleration="2.21"/>
        <vehicle id="leader" x="598.72" y="741.73" angle="74.99" type="DEFAULT_VEHTYPE@leader" speed="12.37" pos="41.43" lane="E2_0" slope="0.00" acceleration="0.00"/>
    </timestep>
    <timestep time="3.30">
        <vehicle id="follower" x="566.75" y="733.16" angle="74.99" type="DEFAULT_VEHTYPE@follower" speed="11.01" pos="8.33" lane="E2_0" slope="0.00" acceleration="2.36"/>
        <vehicle id="leader" x="599.91" y="742.05" angle="74.99" type="DEFAULT_VEHTYPE@leader" speed="12.37" pos="42.67" lane="E2_0" slope="0.00" acceleration="0.00"/>
    </timestep>
    <timestep time="3.40">
        <vehicle id="follower" x="567.83" y="733.45" angle="74.99" type="DEFAULT_VEHTYPE@follower" speed="11.21" pos="9.46" lane="E2_0" slope="0.00" acceleration="2.00"/>
        <vehicle id="leader" x="601.10" y="742.37" angle="74.99" type="DEFAULT_VEHTYPE@leader" speed="12.37" pos="43.90" lane="E2_0" slope="0.00" acceleration="0.00"/>
    </timestep>
    <timestep time="3.50">
        <vehicle id="follower" x="568.94" y="733.74" angle="74.99" type="DEFAULT_VEHTYPE@follower" speed="11.44" pos="10.60" lane="E2_0" slope="0.00" acceleration="2.25"/>
        <vehicle id="leader" x="602.31" y="742.69" angle="74.99" type="DEFAULT_VEHTYPE@leader" speed="12.45" pos="45.15" lane="E2_0" slope="0.00" acceleration="0.80"/>
    </timestep>
    <timestep time="3.60">
        <vehicle id="follower" x="570.05" y="734.04" angle="74.99" type="DEFAULT_VEHTYPE@follower" speed="11.56" pos="11.75" lane="E2_0" slope="0.00" acceleration="1.24"/>
        <vehicle id="leader" x="603.52" y="743.02" angle="74.99" type="DEFAULT_VEHTYPE@leader" speed="12.56" pos="46.40" lane="E2_0" slope="0.00" acceleration="1.10"/>
    </timestep>
    <timestep time="3.70">
        <vehicle id="follower" x="571.19" y="734.35" angle="74.99" type="DEFAULT_VEHTYPE@follower" speed="11.77" pos="12.93" lane="E2_0" slope="0.00" acceleration="2.13"/>
        <vehicle id="leader" x="604.75" y="743.34" angle="74.99" type="DEFAULT_VEHTYPE@leader" speed="12.68" pos="47.67" lane="E2_0" slope="0.00" acceleration="1.20"/>
    </timestep>
    <timestep time="3.80">
        <vehicle id="follower" x="572.34" y="734.66" angle="74.99" type="DEFAULT_VEHTYPE@follower" speed="11.95" pos="14.13" lane="E2_0" slope="0.00" acceleration="1.71"/>
        <vehicle id="leader" x="605.99" y="743.68" angle="74.99" type="DEFAULT_VEHTYPE@leader" speed="12.92" pos="48.96" lane="E2_0" slope="0.00" acceleration="2.40"/>
    </timestep>
    <timestep time="3.90">
        <vehicle id="follower" x="573.51" y="734.97" angle="74.99" type="DEFAULT_VEHTYPE@follower" speed="12.09" pos="15.34" lane="E2_0" slope="0.00" acceleration="1.43"/>
        <vehicle id="leader" x="607.24" y="744.01" angle="74.99" type="DEFAULT_VEHTYPE@leader" speed="12.93" pos="50.26" lane="E2_0" slope="0.00" acceleration="0.10"/>
    </timestep>
    <timestep time="4.00">
        <vehicle id="follower" x="574.70" y="735.29" angle="74.99" type="DEFAULT_VEHTYPE@follower" speed="12.25" pos="16.56" lane="E2_0" slope="0.00" acceleration="1.60"/>
        <vehicle id="leader" x="608.50" y="744.35" angle="74.99" type="DEFAULT_VEHTYPE@leader" speed="13.03" pos="51.56" lane="E2_0" slope="0.00" acceleration="1.00"/>
    </timestep>
    <timestep time="4.10">
        <vehicle id="follower" x="575.89" y="735.61" angle="74.99" type="DEFAULT_VEHTYPE@follower" speed="12.42" pos="17.80" lane="E2_0" slope="0.00" acceleration="1.68"/>
        <vehicle id="leader" x="609.77" y="744.69" angle="74.99" type="DEFAULT_VEHTYPE@leader" speed="13.11" pos="52.87" lane="E2_0" slope="0.00" acceleration="0.80"/>
    </timestep>
    <timestep time="4.20">
        <vehicle id="follower" x="577.11" y="735.93" angle="74.99" type="DEFAULT_VEHTYPE@follower" speed="12.54" pos="19.06" lane="E2_0" slope="0.00" acceleration="1.28"/>
        <vehicle id="leader" x="611.06" y="745.04" angle="74.99" type="DEFAULT_VEHTYPE@leader" speed="13.35" pos="54.21" lane="E2_0" slope="0.00" acceleration="2.40"/>
    </timestep>
    <timestep time="4.30">
        <vehicle id="follower" x="578.34" y="736.26" angle="74.99" type="DEFAULT_VEHTYPE@follower" speed="12.75" pos="20.33" lane="E2_0" slope="0.00" acceleration="2.03"/>
        <vehicle id="leader" x="612.36" y="745.39" angle="74.99" type="DEFAULT_VEHTYPE@leader" speed="13.53" pos="55.56" lane="E2_0" slope="0.00" acceleration="1.80"/>
    </timestep>
    <timestep time="4.40">
        <vehicle id="follower" x="579.59" y="736.60" angle="74.99" type="DEFAULT_VEHTYPE@follower" speed="12.92" pos="21.62" lane="E2_0" slope="0.00" acceleration="1.70"/>
        <vehicle id="leader" x="613.69" y="745.74" angle="74.99" type="DEFAULT_VEHTYPE@leader" speed="13.77" pos="56.94" lane="E2_0" slope="0.00" acceleration="2.40"/>
    </timestep>
    <timestep time="4.50">
        <vehicle id="follower" x="580.85" y="736.94" angle="74.99" type="DEFAULT_VEHTYPE@follower" speed="13.04" pos="22.93" lane="E2_0" slope="0.00" acceleration="1.25"/>
        <vehicle id="leader" x="615.05" y="746.11" angle="74.99" type="DEFAULT_VEHTYPE@leader" speed="14.01" pos="58.34" lane="E2_0" slope="0.00" acceleration="2.40"/>
    </timestep>
    <timestep time="4.60">
        <vehicle id="follower" x="582.12" y="737.28" angle="74.99" type="DEFAULT_VEHTYPE@follower" speed="13.21" pos="24.25" lane="E2_0" slope="0.00" acceleration="1.63"/>
        <vehicle id="leader" x="616.42" y="746.47" angle="74.99" type="DEFAULT_VEHTYPE@leader" speed="14.25" pos="59.76" lane="E2_0" slope="0.00" acceleration="2.40"/>
    </timestep>
    <timestep time="4.70">
        <vehicle id="follower" x="583.42" y="737.63" angle="74.99" type="DEFAULT_VEHTYPE@follower" speed="13.44" pos="25.59" lane="E2_0" slope="0.00" acceleration="2.37"/>
        <vehicle id="leader" x="617.82" y="746.85" angle="74.99" type="DEFAULT_VEHTYPE@leader" speed="14.42" pos="61.20" lane="E2_0" slope="0.00" acceleration="1.70"/>
    </timestep>
    <timestep time="4.80">
        <vehicle id="follower" x="584.73" y="737.98" angle="74.99" type="DEFAULT_VEHTYPE@follower" speed="13.62" pos="26.95" lane="E2_0" slope="0.00" acceleration="1.74"/>
        <vehicle id="leader" x="619.22" y="747.23" angle="74.99" type="DEFAULT_VEHTYPE@leader" speed="14.58" pos="62.66" lane="E2_0" slope="0.00" acceleration="1.60"/>
    </timestep>
    <timestep time="4.90">
        <vehicle id="follower" x="586.07" y="738.34" angle="74.99" type="DEFAULT_VEHTYPE@follower" speed="13.85" pos="28.34" lane="E2_0" slope="0.00" acceleration="2.32"/>
        <vehicle id="leader" x="620.64" y="747.60" angle="74.99" type="DEFAULT_VEHTYPE@leader" speed="14.63" pos="64.12" lane="E2_0" slope="0.00" acceleration="0.50"/>
    </timestep>
    <timestep time="5.00">
        <vehicle id="follower" x="587.42" y="738.70" angle="74.99" type="DEFAULT_VEHTYPE@follower" speed="13.97" pos="29.74" lane="E2_0" slope="0.00" acceleration="1.21"/>
        <vehicle id="leader" x="622.06" y="747.99" angle="74.99" type="DEFAULT_VEHTYPE@leader" speed="14.73" pos="65.60" lane="E2_0" slope="0.00" acceleration="1.00"/>
    </timestep>
    <timestep time="5.10">
        <vehicle id="follower" x="588.79" y="739.07" angle="74.99" type="DEFAULT_VEHTYPE@follower" speed="14.17" pos="31.15" lane="E2_0" slope="0.00" acceleration="1.99"/>
        <vehicle id="leader" x="623.48" y="748.37" angle="74.99" type="DEFAULT_VEHTYPE@leader" speed="14.73" pos="67.07" lane="E2_0" slope="0.00" acceleration="0.00"/>
    </timestep>
    <timestep time="5.20">
        <vehicle id="follower" x="590.17" y="739.44" angle="74.99" type="DEFAULT_VEHTYPE@follower" speed="14.34" pos="32.59" lane="E2_0" slope="0.00" acceleration="1.72"/>
        <vehicle id="leader" x="624.91" y="748.75" angle="74.99" type="DEFAULT_VEHTYPE@leader" speed="14.81" pos="68.55" lane="E2_0" slope="0.00" acceleration="0.80"/>
    </timestep>
    <timestep time="5.30">
        <vehicle id="follower" x="591.58" y="739.81" angle="74.99" type="DEFAULT_VEHTYPE@follower" speed="14.56" pos="34.04" lane="E2_0" slope="0.00" acceleration="2.18"/>
        <vehicle id="leader" x="626.35" y="749.14" angle="74.99" type="DEFAULT_VEHTYPE@leader" speed="14.88" pos="70.04" lane="E2_0" slope="0.00" acceleration="0.70"/>
    </timestep>
    <timestep time="5.40">
        <vehicle id="follower" x="593.01" y="740.20" angle="74.99" type="DEFAULT_VEHTYPE@follower" speed="14.79" pos="35.52" lane="E2_0" slope="0.00" acceleration="2.30"/>
        <vehicle id="leader" x="627.80" y="749.52" angle="74.99" type="DEFAULT_VEHTYPE@leader" speed="15.02" pos="71.54" lane="E2_0" slope="0.00" acceleration="1.40"/>
    </timestep>
    <timestep time="5.50">
        <vehicle id="follower" x="594.46" y="740.59" angle="74.99" type="DEFAULT_VEHTYPE@follower" speed="14.99" pos="37.02" lane="E2_0" slope="0.00" acceleration="1.98"/>
        <vehicle id="leader" x="629.25" y="749.91" angle="74.99" type="DEFAULT_VEHTYPE@leader" speed="14.99" pos="73.04" lane="E2_0" slope="0.00" acceleration="-0.30"/>
    </timestep>
    <timestep time="5.60">
        <vehicle id="follower" x="595.93" y="740.98" angle="74.99" type="DEFAULT_VEHTYPE@follower" speed="15.20" pos="38.54" lane="E2_0" slope="0.00" acceleration="2.15"/>
        <vehicle id="leader" x="630.70" y="750.30" angle="74.99" type="DEFAULT_VEHTYPE@leader" speed="15.06" pos="74.55" lane="E2_0" slope="0.00" acceleration="0.70"/>
    </timestep>
    <timestep time="5.70">
        <vehicle id="follower" x="597.41" y="741.38" angle="74.99" type="DEFAULT_VEHTYPE@follower" speed="15.39" pos="40.08" lane="E2_0" slope="0.00" acceleration="1.89"/>
        <vehicle id="leader" x="632.17" y="750.70" angle="74.99" type="DEFAULT_VEHTYPE@leader" speed="15.22" pos="76.07" lane="E2_0" slope="0.00" acceleration="1.60"/>
    </timestep>
    <timestep time="5.80">
        <vehicle id="follower" x="598.92" y="741.78" angle="74.99" type="DEFAULT_VEHTYPE@follower" speed="15.58" pos="41.64" lane="E2_0" slope="0.00" acceleration="1.93"/>
        <vehicle id="leader" x="633.64" y="751.09" angle="74.99" type="DEFAULT_VEHTYPE@leader" speed="15.16" pos="77.58" lane="E2_0" slope="0.00" acceleration="-0.60"/>
    </timestep>
    <timestep time="5.90">
        <vehicle id="follower" x="600.44" y="742.19" angle="74.99" type="DEFAULT_VEHTYPE@follower" speed="15.73" pos="43.21" lane="E2_0" slope="0.00" acceleration="1.41"/>
        <vehicle id="leader" x="635.10" y="751.48" angle="74.99" type="DEFAULT_VEHTYPE@leader" speed="15.16" pos="79.10" lane="E2_0" slope="0.00" acceleration="0.00"/>
    </timestep>
    <timestep time="6.00">
        <vehicle id="follower" x="601.97" y="742.60" angle="74.99" type="DEFAULT_VEHTYPE@follower" speed="15.92" pos="44.80" lane="E2_0" slope="0.00" acceleration="1.90"/>
        <vehicle id="leader" x="636.56" y="751.87" angle="74.99" type="DEFAULT_VEHTYPE@leader" speed="15.06" pos="80.61" lane="E2_0" slope="0.00" acceleration="-1.00"/>
    </timestep>
    <timestep time="6.10">
        <vehicle id="follower" x="603.52" y="743.01" angle="74.99" type="DEFAULT_VEHTYPE@follower" speed="15.98" pos="46.40" lane="E2_0" slope="0.00" acceleration="0.64"/>
        <vehicle id="leader" x="638.02" y="752.26" angle="74.99" type="DEFAULT_VEHTYPE@leader" speed="15.12" pos="82.12" lane="E2_0" slope="0.00" acceleration="0.60"/>
    </timestep>
    <timestep time="6.20">
        <vehicle id="follower" x="605.07" y="743.43" angle="74.99" type="DEFAULT_VEHTYPE@follower" speed="16.06" pos="48.01" lane="E2_0" slope="0.00" acceleration="0.81"/>
        <vehicle id="leader" x="639.48" y="752.66" angle="74.99" type="DEFAULT_VEHTYPE@leader" speed="15.16" pos="83.63" lane="E2_0" slope="0.00" acceleration="0.40"/>
    </timestep>
    <timestep time="6.30">
        <vehicle id="follower" x="606.61" y="743.84" angle="74.99" type="DEFAULT_VEHTYPE@follower" speed="15.99" pos="49.60" lane="E2_0" slope="0.00" acceleration="-0.69"/>
        <vehicle id="leader" x="640.97" y="753.05" angle="74.99" type="DEFAULT_VEHTYPE@leader" speed="15.40" pos="85.17" lane="E2_0" slope="0.00" acceleration="2.40"/>
    </timestep>
    <timestep time="6.40">
        <vehicle id="follower" x="608.16" y="744.26" angle="74.99" type="DEFAULT_VEHTYPE@follower" speed="15.99" pos="51.20" lane="E2_0" slope="0.00" acceleration="-0.06"/>
        <vehicle id="leader" x="642.48" y="753.46" angle="74.99" type="DEFAULT_VEHTYPE@leader" speed="15.63" pos="86.74" lane="E2_0" slope="0.00" acceleration="2.30"/>
    </timestep>
    <timestep time="6.50">
        <vehicle id="follower" x="609.71" y="744.67" angle="74.99" type="DEFAULT_VEHTYPE@follower" speed="16.04" pos="52.81" lane="E2_0" slope="0.00" acceleration="0.60"/>
        <vehicle id="leader" x="644.00" y="753.87" angle="74.99" type="DEFAULT_VEHTYPE@leader" speed="15.74" pos="88.31" lane="E2_0" slope="0.00" acceleration="1.10"/>
    </timestep>
    <timestep time="6.60">
        <vehicle id="follower" x="611.26" y="745.09" angle="74.99" type="DEFAULT_VEHTYPE@follower" speed="16.04" pos="54.41" lane="E2_0" slope="0.00" acceleration="-0.04"/>
        <vehicle id="leader" x="645.52" y="754.28" angle="74.99" type="DEFAULT_VEHTYPE@leader" speed="15.76" pos="89.89" lane="E2_0" slope="0.00" acceleration="0.20"/>
    </timestep>
    <timestep time="6.70">
        <vehicle id="follower" x="612.80" y="745.50" angle="74.99" type="DEFAULT_VEHTYPE@follower" speed="16.03" pos="56.01" lane="E2_0" slope="0.00" acceleration="-0.14"/>
        <vehicle id="leader" x="647.05" y="754.69" angle="74.99" type="DEFAULT_VEHTYPE@leader" speed="15.87" pos="91.47" lane="E2_0" slope="0.00" acceleration="1.10"/>
    </timestep>
    <timestep time="6.80">
        <vehicle id="follower" x="614.36" y="745.92" angle="74.99" type="DEFAULT_VEHTYPE@follower" speed="16.06" pos="57.62" lane="E2_0" slope="0.00" acceleration="0.33"/>
        <vehicle id="leader" x="648.59" y="755.10" angle="74.99" type="DEFAULT_VEHTYPE@leader" speed="15.90" pos="93.06" lane="E2_0" slope="0.00" acceleration="0.30"/>
    </timestep>
    <timestep time="6.90">
        <vehicle id="follower" x="615.91" y="746.34" angle="74.99" type="DEFAULT_VEHTYPE@follower" speed="16.05" pos="59.23" lane="E2_0" slope="0.00" acceleration="-0.06"/>
        <vehicle id="leader" x="650.14" y="755.51" angle="74.99" type="DEFAULT_VEHTYPE@leader" speed="16.10" pos="94.67" lane="E2_0" slope="0.00" acceleration="1.96"/>
    </timestep>
    <timestep time="7.00">
        <vehicle id="follower" x="617.46" y="746.75" angle="74.99" type="DEFAULT_VEHTYPE@follower" speed="16.08" pos="60.83" lane="E2_0" slope="0.00" acceleration="0.29"/>
        <vehicle id="leader" x="651.70" y="755.93" angle="74.99" type="DEFAULT_VEHTYPE@leader" speed="16.07" pos="96.28" lane="E2_0" slope="0.00" acceleration="-0.26"/>
    </timestep>
    <timestep time="7.10">
        <vehicle id="follower" x="619.01" y="747.17" angle="74.99" type="DEFAULT_VEHTYPE@follower" speed="16.02" pos="62.44" lane="E2_0" slope="0.00" acceleration="-0.67"/>
        <vehicle id="leader" x="653.25" y="756.35" angle="74.99" type="DEFAULT_VEHTYPE@leader" speed="16.07" pos="97.89" lane="E2_0" slope="0.00" acceleration="0.00"/>
    </timestep>
    <timestep time="7.20">
        <vehicle id="follower" x="620.56" y="747.58" angle="74.99" type="DEFAULT_VEHTYPE@follower" speed="16.06" pos="64.04" lane="E2_0" slope="0.00" acceleration="0.46"/>
        <vehicle id="leader" x="654.80" y="756.76" angle="74.99" type="DEFAULT_VEHTYPE@leader" speed="16.07" pos="99.49" lane="E2_0" slope="0.00" acceleration="0.00"/>
    </timestep>
    <timestep time="7.30">
        <vehicle id="follower" x="622.11" y="748.00" angle="74.99" type="DEFAULT_VEHTYPE@follower" speed="16.08" pos="65.65" lane="E2_0" slope="0.00" acceleration="0.19"/>
        <vehicle id="leader" x="656.35" y="757.18" angle="74.99" type="DEFAULT_VEHTYPE@leader" speed="16.07" pos="101.10" lane="E2_0" slope="0.00" acceleration="0.00"/>
    </timestep>
    <timestep time="7.40">
        <vehicle id="follower" x="623.66" y="748.42" angle="74.99" type="DEFAULT_VEHTYPE@follower" speed="16.08" pos="67.26" lane="E2_0" slope="0.00" acceleration="-0.02"/>
        <vehicle id="leader" x="657.91" y="757.59" angle="74.99" type="DEFAULT_VEHTYPE@leader" speed="16.07" pos="102.71" lane="E2_0" slope="0.00" acceleration="0.00"/>
    </timestep>
    <timestep time="7.50">
        <vehicle id="follower" x="625.21" y="748.83" angle="74.99" type="DEFAULT_VEHTYPE@follower" speed="16.05" pos="68.86" lane="E2_0" slope="0.00" acceleration="-0.28"/>
        <vehicle id="leader" x="659.46" y="758.01" angle="74.99" type="DEFAULT_VEHTYPE@leader" speed="16.07" pos="104.32" lane="E2_0" slope="0.00" acceleration="0.00"/>
    </timestep>
    <timestep time="7.60">
        <vehicle id="follower" x="626.77" y="749.25" angle="74.99" type="DEFAULT_VEHTYPE@follower" speed="16.09" pos="70.47" lane="E2_0" slope="0.00" acceleration="0.39"/>
        <vehicle id="leader" x="661.00" y="758.43" angle="74.99" type="DEFAULT_VEHTYPE@leader" speed="16.01" pos="105.92" lane="E2_0" slope="0.00" acceleration="-0.60"/>
    </timestep>
    <timestep time="7.70">
        <vehicle id="follower" x="628.32" y="749.66" angle="74.99" type="DEFAULT_VEHTYPE@follower" speed="16.01" pos="72.07" lane="E2_0" slope="0.00" acceleration="-0.76"/>
        <vehicle id="leader" x="662.55" y="758.84" angle="74.99" type="DEFAULT_VEHTYPE@leader" speed="16.04" pos="107.52" lane="E2_0" slope="0.00" acceleration="0.30"/>
    </timestep>
    <timestep time="7.80">
        <vehicle id="follower" x="629.86" y="750.08" angle="74.99" type="DEFAULT_VEHTYPE@follower" speed="15.99" pos="73.67" lane="E2_0" slope="0.00" acceleration="-0.20"/>
        <vehicle id="leader" x="664.11" y="759.26" angle="74.99" type="DEFAULT_VEHTYPE@leader" speed="16.10" pos="109.13" lane="E2_0" slope="0.00" acceleration="0.56"/>
    </timestep>
    <timestep time="7.90">
        <vehicle id="follower" x="631.41" y="750.49" angle="74.99" type="DEFAULT_VEHTYPE@follower" speed="15.99" pos="75.27" lane="E2_0" slope="0.00" acceleration="-0.07"/>
        <vehicle id="leader" x="665.66" y="759.67" angle="74.99" type="DEFAULT_VEHTYPE@leader" speed="16.10" pos="110.74" lane="E2_0" slope="0.00" acceleration="0.00"/>
    </timestep>
    <timestep time="8.00">
        <vehicle id="follower" x="632.95" y="750.91" angle="74.99" type="DEFAULT_VEHTYPE@follower" speed="16.02" pos="76.87" lane="E2_0" slope="0.00" acceleration="0.29"/>
        <vehicle id="leader" x="667.22" y="760.09" angle="74.99" type="DEFAULT_VEHTYPE@leader" speed="16.10" pos="112.35" lane="E2_0" slope="0.00" acceleration="0.00"/>
    </timestep>
    <timestep time="8.10">
        <vehicle id="follower" x="634.50" y="751.32" angle="74.99" type="DEFAULT_VEHTYPE@follower" speed="16.03" pos="78.48" lane="E2_0" slope="0.00" acceleration="0.09"/>
        <vehicle id="leader" x="668.77" y="760.51" angle="74.99" type="DEFAULT_VEHTYPE@leader" speed="16.10" pos="113.96" lane="E2_0" slope="0.00" acceleration="0.00"/>
    </timestep>
    <timestep time="8.20">
        <vehicle id="follower" x="636.05" y="751.74" angle="74.99" type="DEFAULT_VEHTYPE@follower" speed="16.05" pos="80.08" lane="E2_0" slope="0.00" acceleration="0.25"/>
        <vehicle id="leader" x="670.33" y="760.92" angle="74.99" type="DEFAULT_VEHTYPE@leader" speed="16.10" pos="115.57" lane="E2_0" slope="0.00" acceleration="0.00"/>
    </timestep>
    <timestep time="8.30">
        <vehicle id="follower" x="637.60" y="752.15" angle="74.99" type="DEFAULT_VEHTYPE@follower" speed="16.02" pos="81.68" lane="E2_0" slope="0.00" acceleration="-0.26"/>
        <vehicle id="leader" x="671.88" y="761.34" angle="74.99" type="DEFAULT_VEHTYPE@leader" speed="16.10" pos="117.18" lane="E2_0" slope="0.00" acceleration="0.00"/>
    </timestep>
    <timestep time="8.40">
        <vehicle id="follower" x="639.15" y="752.57" angle="74.99" type="DEFAULT_VEHTYPE@follower" speed="16.08" pos="83.29" lane="E2_0" slope="0.00" acceleration="0.59"/>
        <vehicle id="leader" x="673.44" y="761.76" angle="74.99" type="DEFAULT_VEHTYPE@leader" speed="16.10" pos="118.79" lane="E2_0" slope="0.00" acceleration="0.00"/>
    </timestep>
    <timestep time="8.50">
        <vehicle id="follower" x="640.70" y="752.98" angle="74.99" type="DEFAULT_VEHTYPE@follower" speed="16.02" pos="84.89" lane="E2_0" slope="0.00" acceleration="-0.65"/>
        <vehicle id="leader" x="674.99" y="762.18" angle="74.99" type="DEFAULT_VEHTYPE@leader" speed="16.10" pos="120.40" lane="E2_0" slope="0.00" acceleration="0.00"/>
    </timestep>
    <timestep time="8.60">
        <vehicle id="follower" x="642.24" y="753.40" angle="74.99" type="DEFAULT_VEHTYPE@follower" speed="15.98" pos="86.49" lane="E2_0" slope="0.00" acceleration="-0.36"/>
        <vehicle id="leader" x="676.55" y="762.59" angle="74.99" type="DEFAULT_VEHTYPE@leader" speed="16.10" pos="122.01" lane="E2_0" slope="0.00" acceleration="0.00"/>
    </timestep>
    <timestep time="8.70">
        <vehicle id="follower" x="643.80" y="753.81" angle="74.99" type="DEFAULT_VEHTYPE@follower" speed="16.09" pos="88.10" lane="E2_0" slope="0.00" acceleration="1.12"/>
        <vehicle id="leader" x="678.10" y="763.01" angle="74.99" type="DEFAULT_VEHTYPE@leader" speed="16.10" pos="123.62" lane="E2_0" slope="0.00" acceleration="0.00"/>
    </timestep>
    <timestep time="8.80">
        <vehicle id="follower" x="645.34" y="754.23" angle="74.99" type="DEFAULT_VEHTYPE@follower" speed="15.99" pos="89.70" lane="E2_0" slope="0.00" acceleration="-1.05"/>
        <vehicle id="leader" x="679.66" y="763.43" angle="74.99" type="DEFAULT_VEHTYPE@leader" speed="16.10" pos="125.23" lane="E2_0" slope="0.00" acceleration="0.00"/>
    </timestep>
    <timestep time="8.90">