<?xml version="1.0" encoding="UTF-8"?>

<!-- generated on 2023-04-04 14:13:57 by Eclipse SUMO sumo Version 1.16.0
<configuration xmlns:xsi="http://www.w3.org/2001/XMLSchema-instance" xsi:noNamespaceSchemaLocation="http://sumo.dlr.de/xsd/sumoConfiguration.xsd">

    <input>
        <net-file value="c:\Users\aryak\Projects\cf-sumo\sumo-xml\net.net.xml"/>
    </input>

    <output>
        <fcd-output value="c:\Users\aryak\Projects\cf-sumo\sumo-xml\output\304_fcd.xml"/>
        <fcd-output.acceleration value="true"/>
    </output>

    <time>
        <step-length value="0.1"/>
    </time>

    <report>
        <no-step-log value="true"/>
    </report>

    <traci_server>
        <remote-port value="64972"/>
    </traci_server>

</configuration>
-->

<fcd-export xmlns:xsi="http://www.w3.org/2001/XMLSchema-instance" xsi:noNamespaceSchemaLocation="http://sumo.dlr.de/xsd/fcd_file.xsd">
    <timestep time="0.00">
        <vehicle id="leader" x="563.63" y="732.32" angle="74.99" type="DEFAULT_VEHTYPE@leader" speed="10.35" pos="5.10" lane="E2_0" slope="0.00" acceleration="0.00"/>
    </timestep>
    <timestep time="0.10">
        <vehicle id="leader" x="564.65" y="732.59" angle="74.99" type="DEFAULT_VEHTYPE@leader" speed="10.55" pos="6.15" lane="E2_0" slope="0.00" acceleration="2.00"/>
    </timestep>
    <timestep time="0.20">
        <vehicle id="leader" x="565.67" y="732.87" angle="74.99" type="DEFAULT_VEHTYPE@leader" speed="10.63" pos="7.22" lane="E2_0" slope="0.00" acceleration="0.80"/>
    </timestep>
    <timestep time="0.30">
        <vehicle id="leader" x="566.69" y="733.14" angle="74.99" type="DEFAULT_VEHTYPE@leader" speed="10.53" pos="8.27" lane="E2_0" slope="0.00" acceleration="-1.00"/>
    </timestep>
    <timestep time="0.40">
        <vehicle id="leader" x="567.70" y="733.41" angle="74.99" type="DEFAULT_VEHTYPE@leader" speed="10.48" pos="9.32" lane="E2_0" slope="0.00" acceleration="-0.50"/>
    </timestep>
    <timestep time="0.50">
        <vehicle id="leader" x="568.73" y="733.69" angle="74.99" type="DEFAULT_VEHTYPE@leader" speed="10.66" pos="10.39" lane="E2_0" slope="0.00" acceleration="1.80"/>
    </timestep>
    <timestep time="0.60">
        <vehicle id="leader" x="569.77" y="733.97" angle="74.99" type="DEFAULT_VEHTYPE@leader" speed="10.78" pos="11.46" lane="E2_0" slope="0.00" acceleration="1.20"/>
    </timestep>
    <timestep time="0.70">
        <vehicle id="leader" x="570.81" y="734.25" angle="74.99" type="DEFAULT_VEHTYPE@leader" speed="10.78" pos="12.54" lane="E2_0" slope="0.00" acceleration="0.00"/>
    </timestep>
    <timestep time="0.80">
        <vehicle id="leader" x="571.85" y="734.53" angle="74.99" type="DEFAULT_VEHTYPE@leader" speed="10.78" pos="13.62" lane="E2_0" slope="0.00" acceleration="0.00"/>
    </timestep>
    <timestep time="0.90">
        <vehicle id="leader" x="572.90" y="734.81" angle="74.99" type="DEFAULT_VEHTYPE@leader" speed="10.82" pos="14.70" lane="E2_0" slope="0.00" acceleration="0.40"/>
    </timestep>
    <timestep time="1.00">
        <vehicle id="leader" x="573.94" y="735.09" angle="74.99" type="DEFAULT_VEHTYPE@leader" speed="10.82" pos="15.78" lane="E2_0" slope="0.00" acceleration="0.00"/>
    </timestep>
    <timestep time="1.10">
        <vehicle id="leader" x="574.99" y="735.37" angle="74.99" type="DEFAULT_VEHTYPE@leader" speed="10.82" pos="16.87" lane="E2_0" slope="0.00" acceleration="0.00"/>
    </timestep>
    <timestep time="1.20">
        <vehicle id="leader" x="576.03" y="735.65" angle="74.99" type="DEFAULT_VEHTYPE@leader" speed="10.82" pos="17.95" lane="E2_0" slope="0.00" acceleration="0.00"/>
    </timestep>
    <timestep time="1.30">
        <vehicle id="leader" x="577.10" y="735.93" angle="74.99" type="DEFAULT_VEHTYPE@leader" speed="11.07" pos="19.05" lane="E2_0" slope="0.00" acceleration="2.50"/>
    </timestep>
    <timestep time="1.40">
        <vehicle id="leader" x="578.18" y="736.22" angle="74.99" type="DEFAULT_VEHTYPE@leader" speed="11.16" pos="20.17" lane="E2_0" slope="0.00" acceleration="0.90"/>
    </timestep>
    <timestep time="1.50">
        <vehicle id="leader" x="579.26" y="736.51" angle="74.99" type="DEFAULT_VEHTYPE@leader" speed="11.19" pos="21.29" lane="E2_0" slope="0.00" acceleration="0.30"/>
    </timestep>
    <timestep time="1.60">
        <vehicle id="leader" x="580.35" y="736.80" angle="74.99" type="DEFAULT_VEHTYPE@leader" speed="11.27" pos="22.42" lane="E2_0" slope="0.00" acceleration="0.80"/>
    </timestep>
    <timestep time="1.70">
        <vehicle id="leader" x="581.44" y="737.10" angle="74.99" type="DEFAULT_VEHTYPE@leader" speed="11.27" pos="23.54" lane="E2_0" slope="0.00" acceleration="0.00"/>
    </timestep>
    <timestep time="1.80">
        <vehicle id="leader" x="582.53" y="737.39" angle="74.99" type="DEFAULT_VEHTYPE@leader" speed="11.27" pos="24.67" lane="E2_0" slope="0.00" acceleration="0.00"/>
    </timestep>
    <timestep time="1.90">
        <vehicle id="leader" x="583.64" y="737.68" angle="74.99" type="DEFAULT_VEHTYPE@leader" speed="11.46" pos="25.82" lane="E2_0" slope="0.00" acceleration="1.90"/>
    </timestep>
    <timestep time="2.00">
        <vehicle id="leader" x="584.75" y="737.98" angle="74.99" type="DEFAULT_VEHTYPE@leader" speed="11.51" pos="26.97" lane="E2_0" slope="0.00" acceleration="0.50"/>
    </timestep>
    <timestep time="2.10">
        <vehicle id="leader" x="585.87" y="738.28" angle="74.99" type="DEFAULT_VEHTYPE@leader" speed="11.63" pos="28.13" lane="E2_0" slope="0.00" acceleration="1.20"/>
    </timestep>
    <timestep time="2.20">
        <vehicle id="leader" x="587.01" y="738.59" angle="74.99" type="DEFAULT_VEHTYPE@leader" speed="11.76" pos="29.31" lane="E2_0" slope="0.00" acceleration="1.30"/>
    </timestep>
    <timestep time="2.30">
        <vehicle id="leader" x="588.15" y="738.89" angle="74.99" type="DEFAULT_VEHTYPE@leader" speed="11.82" pos="30.49" lane="E2_0" slope="0.00" acceleration="0.60"/>
    </timestep>
    <timestep time="2.40">
        <vehicle id="leader" x="589.29" y="739.20" angle="74.99" type="DEFAULT_VEHTYPE@leader" speed="11.82" pos="31.67" lane="E2_0" slope="0.00" acceleration="0.00"/>
    </timestep>
    <timestep time="2.50">
        <vehicle id="leader" x="590.43" y="739.51" angle="74.99" type="DEFAULT_VEHTYPE@leader" speed="11.84" pos="32.85" lane="E2_0" slope="0.00" acceleration="0.20"/>
    </timestep>
    <timestep time="2.60">
        <vehicle id="leader" x="591.60" y="739.82" angle="74.99" type="DEFAULT_VEHTYPE@leader" speed="12.04" pos="34.06" lane="E2_0" slope="0.00" acceleration="2.00"/>
    </timestep>
    <timestep time="2.70">
        <vehicle id="leader" x="592.76" y="740.13" angle="74.99" type="DEFAULT_VEHTYPE@leader" speed="12.04" pos="35.26" lane="E2_0" slope="0.00" acceleration="0.00"/>
    </timestep>
    <timestep time="2.80">
        <vehicle id="leader" x="593.94" y="740.45" angle="74.99" type="DEFAULT_VEHTYPE@leader" speed="12.19" pos="36.48" lane="E2_0" slope="0.00" acceleration="1.50"/>
    </timestep>
    <timestep time="2.90">
        <vehicle id="leader" x="595.13" y="740.77" angle="74.99" type="DEFAULT_VEHTYPE@leader" speed="12.37" pos="37.72" lane="E2_0" slope="0.00" acceleration="1.80"/>
    </timestep>
    <timestep time="3.00">
        <vehicle id="follower" x="563.63" y="732.32" angle="74.99" type="DEFAULT_VEHTYPE@follower" speed="10.35" pos="5.10" lane="E2_0" slope="0.00" acceleration="0.00"/>
        <vehicle id="leader" x="596.33" y="741.09" angle="74.99" type="DEFAULT_VEHTYPE@leader" speed="12.37" pos="38.95" lane="E2_0" slope="0.00" acceleration="0.00"/>
    </timestep>
    <timestep time="3.10">
        <vehicle id="follower" x="564.66" y="732.60" angle="74.99" type="DEFAULT_VEHTYPE@follower" speed="10.66" pos="6.17" lane="E2_0" slope="0.00" acceleration="3.06"/>
        <vehicle id="leader" x="597.52" y="741.41" angle="74.99" type="DEFAULT_VEHTYPE@leader" speed="12.37" pos="40.19" lane="E2_0" slope="0.00" acceleration="0.00"/>
    </timestep>
    <timestep time="3.20">
        <vehicle id="follower" x="565.72" y="732.88" angle="74.99" type="DEFAULT_VEHTYPE@follower" speed="10.99" pos="7.26" lane="E2_0" slope="0.00" acceleration="3.31"/>
        <vehicle id="leader" x="598.72" y="741.73" angle="74.99" type="DEFAULT_VEHTYPE@leader" speed="12.37" pos="41.43" lane="E2_0" slope="0.00" acceleration="0.00"/>
    </timestep>
    <timestep time="3.30">
        <vehicle id="follower" x="566.81" y="733.17" angle="74.99" type="DEFAULT_VEHTYPE@follower" speed="11.34" pos="8.40" lane="E2_0" slope="0.00" acceleration="3.55"/>
        <vehicle id="leader" x="599.91" y="742.05" angle="74.99" type="DEFAULT_VEHTYPE@leader" speed="12.37" pos="42.67" lane="E2_0" slope="0.00" acceleration="0.00"/>
    </timestep>
    <timestep time="3.40">
        <vehicle id="follower" x="567.94" y="733.48" angle="74.99" type="DEFAULT_VEHTYPE@follower" speed="11.64" pos="9.56" lane="E2_0" slope="0.00" acceleration="3.00"/>
        <vehicle id="leader" x="601.11" y="742.37" angle="74.99" type="DEFAULT_VEHTYPE@leader" speed="12.37" pos="43.90" lane="E2_0" slope="0.00" acceleration="0.00"/>
    </timestep>
    <timestep time="3.50">
        <vehicle id="follower" x="569.09" y="733.79" angle="74.99" type="DEFAULT_VEHTYPE@follower" speed="11.98" pos="10.76" lane="E2_0" slope="0.00" acceleration="3.37"/>
        <vehicle id="leader" x="602.31" y="742.69" angle="74.99" type="DEFAULT_VEHTYPE@leader" speed="12.45" pos="45.15" lane="E2_0" slope="0.00" acceleration="0.80"/>
    </timestep>
    <timestep time="3.60">
        <vehicle id="follower" x="570.27" y="734.10" angle="74.99" type="DEFAULT_VEHTYPE@follower" speed="12.17" pos="11.98" lane="E2_0" slope="0.00" acceleration="1.86"/>
        <vehicle id="leader" x="603.52" y="743.02" angle="74.99" type="DEFAULT_VEHTYPE@leader" speed="12.56" pos="46.40" lane="E2_0" slope="0.00" acceleration="1.10"/>
    </timestep>
    <timestep time="3.70">
        <vehicle id="follower" x="571.47" y="734.42" angle="74.99" type="DEFAULT_VEHTYPE@follower" speed="12.49" pos="13.23" lane="E2_0" slope="0.00" acceleration="3.20"/>
        <vehicle id="leader" x="604.75" y="743.34" angle="74.99" type="DEFAULT_VEHTYPE@leader" speed="12.68" pos="47.67" lane="E2_0" slope="0.00" acceleration="1.20"/>
    </timestep>
    <timestep time="3.80">
        <vehicle id="follower" x="572.71" y="734.75" angle="74.99" type="DEFAULT_VEHTYPE@follower" speed="12.74" pos="14.50" lane="E2_0" slope="0.00" acceleration="2.57"/>
        <vehicle id="leader" x="606.00" y="743.68" angle="74.99" type="DEFAULT_VEHTYPE@leader" speed="12.93" pos="48.97" lane="E2_0" slope="0.00" acceleration="2.50"/>
    </timestep>
    <timestep time="3.90">
        <vehicle id="follower" x="573.96" y="735.09" angle="74.99" type="DEFAULT_VEHTYPE@follower" speed="12.96" pos="15.80" lane="E2_0" slope="0.00" acceleration="2.14"/>
        <vehicle id="leader" x="607.24" y="744.01" angle="74.99" type="DEFAULT_VEHTYPE@leader" speed="12.93" pos="50.26" lane="E2_0" slope="0.00" acceleration="0.00"/>
    </timestep>
    <timestep time="4.00">
        <vehicle id="follower" x="575.23" y="735.43" angle="74.99" type="DEFAULT_VEHTYPE@follower" speed="13.20" pos="17.12" lane="E2_0" slope="0.00" acceleration="2.40"/>
        <vehicle id="leader" x="608.50" y="744.35" angle="74.99" type="DEFAULT_VEHTYPE@leader" speed="13.03" pos="51.56" lane="E2_0" slope="0.00" acceleration="1.00"/>
    </timestep>
    <timestep time="4.10">
        <vehicle id="follower" x="576.53" y="735.78" angle="74.99" type="DEFAULT_VEHTYPE@follower" speed="13.45" pos="18.46" lane="E2_0" slope="0.00" acceleration="2.53"/>
        <vehicle id="leader" x="609.77" y="744.69" angle="74.99" type="DEFAULT_VEHTYPE@leader" speed="13.11" pos="52.87" lane="E2_0" slope="0.00" acceleration="0.80"/>
    </timestep>
    <timestep time="4.20">
        <vehicle id="follower" x="577.85" y="736.13" angle="74.99" type="DEFAULT_VEHTYPE@follower" speed="13.64" pos="19.82" lane="E2_0" slope="0.00" acceleration="1.92"/>
        <vehicle id="leader" x="611.06" y="745.04" angle="74.99" type="DEFAULT_VEHTYPE@leader" speed="13.35" pos="54.21" lane="E2_0" slope="0.00" acceleration="2.40"/>
    </timestep>
    <timestep time="4.30">
        <vehicle id="follower" x="579.20" y="736.49" angle="74.99" type="DEFAULT_VEHTYPE@follower" speed="13.95" pos="21.22" lane="E2_0" slope="0.00" acceleration="3.05"/>
        <vehicle id="leader" x="612.37" y="745.39" angle="74.99" type="DEFAULT_VEHTYPE@leader" speed="13.53" pos="55.56" lane="E2_0" slope="0.00" acceleration="1.80"/>
    </timestep>
    <timestep time="4.40">
        <vehicle id="follower" x="580.55" y="736.86" angle="74.99" type="DEFAULT_VEHTYPE@follower" speed="14.06" pos="22.62" lane="E2_0" slope="0.00" acceleration="1.15"/>
        <vehicle id="leader" x="613.71" y="745.75" angle="74.99" type="DEFAULT_VEHTYPE@leader" speed="13.89" pos="56.95" lane="E2_0" slope="0.00" acceleration="3.60"/>
    </timestep>
    <timestep time="4.50">
        <vehicle id="follower" x="581.92" y="737.23" angle="74.99" type="DEFAULT_VEHTYPE@follower" speed="14.17" pos="24.04" lane="E2_0" slope="0.00" acceleration="1.05"/>
        <vehicle id="leader" x="615.07" y="746.11" angle="74.99" type="DEFAULT_VEHTYPE@leader" speed="14.10" pos="58.36" lane="E2_0" slope="0.00" acceleration="2.10"/>
    </timestep>
    <timestep time="4.60">
        <vehicle id="follower" x="583.31" y="737.60" angle="74.99" type="DEFAULT_VEHTYPE@follower" speed="14.33" pos="25.47" lane="E2_0" slope="0.00" acceleration="1.59"/>
        <vehicle id="leader" x="616.46" y="746.48" angle="74.99" type="DEFAULT_VEHTYPE@leader" speed="14.36" pos="59.80" lane="E2_0" slope="0.00" acceleration="2.60"/>
    </timestep>
    <timestep time="4.70">
        <vehicle id="follower" x="584.71" y="737.97" angle="74.99" type="DEFAULT_VEHTYPE@follower" speed="14.56" pos="26.93" lane="E2_0" slope="0.00" acceleration="2.40"/>
        <vehicle id="leader" x="617.85" y="746.86" angle="74.99" type="DEFAULT_VEHTYPE@leader" speed="14.42" pos="61.24" lane="E2_0" slope="0.00" acceleration="0.60"/>
    </timestep>
    <timestep time="4.80">
        <vehicle id="follower" x="586.11" y="738.35" angle="74.99" type="DEFAULT_VEHTYPE@follower" speed="14.50" pos="28.38" lane="E2_0" slope="0.00" acceleration="-0.66"/>
        <vehicle id="leader" x="619.26" y="747.23" angle="74.99" type="DEFAULT_VEHTYPE@leader" speed="14.58" pos="62.70" lane="E2_0" slope="0.00" acceleration="1.60"/>
    </timestep>
    <timestep time="4.90">
        <vehicle id="follower" x="587.53" y="738.73" angle="74.99" type="DEFAULT_VEHTYPE@follower" speed="14.67" pos="29.85" lane="E2_0" slope="0.00" acceleration="1.69"/>
        <vehicle id="leader" x="620.67" y="747.61" angle="74.99" type="DEFAULT_VEHTYPE@leader" speed="14.63" pos="64.16" lane="E2_0" slope="0.00" acceleration="0.50"/>
    </timestep>
    <timestep time="5.00">
        <vehicle id="follower" x="588.93" y="739.10" angle="74.99" type="DEFAULT_VEHTYPE@follower" speed="14.53" pos="31.30" lane="E2_0" slope="0.00" acceleration="-1.42"/>
        <vehicle id="leader" x="622.09" y="747.99" angle="74.99" type="DEFAULT_VEHTYPE@leader" speed="14.73" pos="65.63" lane="E2_0" slope="0.00" acceleration="1.00"/>
    </timestep>
    <timestep time="5.10">
        <vehicle id="follower" x="590.35" y="739.49" angle="74.99" type="DEFAULT_VEHTYPE@follower" speed="14.70" pos="32.77" lane="E2_0" slope="0.00" acceleration="1.71"/>
        <vehicle id="leader" x="623.52" y="748.38" angle="74.99" type="DEFAULT_VEHTYPE@leader" speed="14.73" pos="67.10" lane="E2_0" slope="0.00" acceleration="0.00"/>
    </timestep>
    <timestep time="5.20">
        <vehicle id="follower" x="591.77" y="739.86" angle="74.99" type="DEFAULT_VEHTYPE@follower" speed="14.66" pos="34.24" lane="E2_0" slope="0.00" acceleration="-0.41"/>
        <vehicle id="leader" x="624.95" y="748.76" angle="74.99" type="DEFAULT_VEHTYPE@leader" speed="14.81" pos="68.58" lane="E2_0" slope="0.00" acceleration="0.80"/>
    </timestep>
    <timestep time="5.30">
        <vehicle id="follower" x="593.19" y="740.25" angle="74.99" type="DEFAULT_VEHTYPE@follower" speed="14.77" pos="35.71" lane="E2_0" slope="0.00" acceleration="1.12"/>
        <vehicle id="leader" x="626.38" y="749.14" angle="74.99" type="DEFAULT_VEHTYPE@leader" speed="14.88" pos="70.07" lane="E2_0" slope="0.00" acceleration="0.70"/>
    </timestep>
    <timestep time="5.40">
        <vehicle id="follower" x="594.63" y="740.63" angle="74.99" type="DEFAULT_VEHTYPE@follower" speed="14.82" pos="37.19" lane="E2_0" slope="0.00" acceleration="0.55"/>
        <vehicle id="leader" x="627.83" y="749.53" angle="74.99" type="DEFAULT_VEHTYPE@leader" speed="15.02" pos="71.57" lane="E2_0" slope="0.00" acceleration="1.40"/>
    </timestep>
    <timestep time="5.50">
        <vehicle id="follower" x="596.06" y="741.02" angle="74.99" type="DEFAULT_VEHTYPE@follower" speed="14.85" pos="38.68" lane="E2_0" slope="0.00" acceleration="0.26"/>
        <vehicle id="leader" x="629.28" y="749.92" angle="74.99" type="DEFAULT_VEHTYPE@leader" speed="14.99" pos="73.07" lane="E2_0" slope="0.00" acceleration="-0.30"/>
    </timestep>
    <timestep time="5.60">
        <vehicle id="follower" x="597.50" y="741.40" angle="74.99" type="DEFAULT_VEHTYPE@follower" speed="14.86" pos="40.17" lane="E2_0" slope="0.00" acceleration="0.12"/>
        <vehicle id="leader" x="630.74" y="750.31" angle="74.99" type="DEFAULT_VEHTYPE@leader" speed="15.06" pos="74.58" lane="E2_0" slope="0.00" acceleration="0.70"/>
    </timestep>
    <timestep time="5.70">
        <vehicle id="follower" x="598.93" y="741.79" angle="74.99" type="DEFAULT_VEHTYPE@follower" speed="14.86" pos="41.65" lane="E2_0" slope="0.00" acceleration="0.01"/>
        <vehicle id="leader" x="632.21" y="750.71" angle="74.99" type="DEFAULT_VEHTYPE@leader" speed="15.22" pos="76.10" lane="E2_0" slope="0.00" acceleration="1.60"/>
    </timestep>
    <timestep time="5.80">
        <vehicle id="follower" x="600.38" y="742.17" angle="74.99" type="DEFAULT_VEHTYPE@follower" speed="14.96" pos="43.15" lane="E2_0" slope="0.00" acceleration="0.94"/>
        <vehicle id="leader" x="633.67" y="751.10" angle="74.99" type="DEFAULT_VEHTYPE@leader" speed="15.16" pos="77.62" lane="E2_0" slope="0.00" acceleration="-0.60"/>
    </timestep>
    <timestep time="5.90">
        <vehicle id="follower" x="601.81" y="742.56" angle="74.99" type="DEFAULT_VEHTYPE@follower" speed="14.85" pos="44.63" lane="E2_0" slope="0.00" acceleration="-1.06"/>
        <vehicle id="leader" x="635.14" y="751.49" angle="74.99" type="DEFAULT_VEHTYPE@leader" speed="15.16" pos="79.13" lane="E2_0" slope="0.00" acceleration="0.00"/>
    </timestep>
    <timestep time="6.00">
        <vehicle id="follower" x="603.25" y="742.94" angle="74.99" type="DEFAULT_VEHTYPE@follower" speed="14.93" pos="46.13" lane="E2_0" slope="0.00" acceleration="0.78"/>
        <vehicle id="leader" x="636.59" y="751.88" angle="74.99" type="DEFAULT_VEHTYPE@leader" speed="15.06" pos="80.64" lane="E2_0" slope="0.00" acceleration="-1.00"/>
    </timestep>
    <timestep time="6.10">
        <vehicle id="follower" x="604.68" y="743.33" angle="74.99" type="DEFAULT_VEHTYPE@follower" speed="14.78" pos="47.60" lane="E2_0" slope="0.00" acceleration="-1.50"/>
        <vehicle id="leader" x="638.05" y="752.27" angle="74.99" type="DEFAULT_VEHTYPE@leader" speed="15.12" pos="82.15" lane="E2_0" slope="0.00" acceleration="0.60"/>
    </timestep>
    <timestep time="6.20">
        <vehicle id="follower" x="606.12" y="743.71" angle="74.99" type="DEFAULT_VEHTYPE@follower" speed="14.94" pos="49.10" lane="E2_0" slope="0.00" acceleration="1.58"/>
        <vehicle id="leader" x="639.51" y="752.66" angle="74.99" type="DEFAULT_VEHTYPE@leader" speed="15.16" pos="83.67" lane="E2_0" slope="0.00" acceleration="0.40"/>
    </timestep>
    <timestep time="6.30">
        <vehicle id="follower" x="607.56" y="744.10" angle="74.99" type="DEFAULT_VEHTYPE@follower" speed="14.86" pos="50.58" lane="E2_0" slope="0.00" acceleration="-0.79"/>
        <vehicle id="leader" x="641.00" y="753.06" angle="74.99" type="DEFAULT_VEHTYPE@leader" speed="15.40" pos="85.21" lane="E2_0" slope="0.00" acceleration="2.40"/>
    </timestep>
    <timestep time="6.40">
        <vehicle id="follower" x="609.01" y="744.49" angle="74.99" type="DEFAULT_VEHTYPE@follower" speed="14.98" pos="52.08" lane="E2_0" slope="0.00" acceleration="1.23"/>
        <vehicle id="leader" x="642.51" y="753.47" angle="74.99" type="DEFAULT_VEHTYPE@leader" speed="15.63" pos="86.77" lane="E2_0" slope="0.00" acceleration="2.30"/>
    </timestep>
    <timestep time="6.50">
        <vehicle id="follower" x="610.47" y="744.88" angle="74.99" type="DEFAULT_VEHTYPE@follower" speed="15.20" pos="53.60" lane="E2_0" slope="0.00" acceleration="2.20"/>
        <vehicle id="leader" x="644.03" y="753.88" angle="74.99" type="DEFAULT_VEHTYPE@leader" speed="15.74" pos="88.35" lane="E2_0" slope="0.00" acceleration="1.10"/>
    </timestep>
    <timestep time="6.60">
        <vehicle id="follower" x="611.95" y="745.27" angle="74.99" type="DEFAULT_VEHTYPE@follower" speed="15.26" pos="55.13" lane="E2_0" slope="0.00" acceleration="0.59"/>
        <vehicle id="leader" x="645.55" y="754.28" angle="74.99" type="DEFAULT_VEHTYPE@leader" speed="15.76" pos="89.92" lane="E2_0" slope="0.00" acceleration="0.20"/>
    </timestep>
    <timestep time="6.70">
        <vehicle id="follower" x="613.42" y="745.67" angle="74.99" type="DEFAULT_VEHTYPE@follower" speed="15.26" pos="56.65" lane="E2_0" slope="0.00" acceleration="-0.03"/>
        <vehicle id="leader" x="647.09" y="754.69" angle="74.99" type="DEFAULT_VEHTYPE@leader" speed="15.87" pos="91.51" lane="E2_0" slope="0.00" acceleration="1.10"/>
    </timestep>
    <timestep time="6.80">
        <vehicle id="follower" x="614.91" y="746.07" angle="74.99" type="DEFAULT_VEHTYPE@follower" speed="15.37" pos="58.19" lane="E2_0" slope="0.00" acceleration="1.18"/>
        <vehicle id="leader" x="648.62" y="755.11" angle="74.99" type="DEFAULT_VEHTYPE@leader" speed="15.90" pos="93.10" lane="E2_0" slope="0.00" acceleration="0.30"/>
    </timestep>
    <timestep time="6.90">
        <vehicle id="follower" x="616.39" y="746.47" angle="74.99" type="DEFAULT_VEHTYPE@follower" speed="15.39" pos="59.73" lane="E2_0" slope="0.00" acceleration="0.15"/>
        <vehicle id="leader" x="650.18" y="755.52" angle="74.99" type="DEFAULT_VEHTYPE@leader" speed="16.11" pos="94.71" lane="E2_0" slope="0.00" acceleration="2.10"/>
    </timestep>
    <timestep time="7.00">
        <vehicle id="follower" x="617.90" y="746.87" angle="74.99" type="DEFAULT_VEHTYPE@follower" speed="15.55" pos="61.29" lane="E2_0" slope="0.00" acceleration="1.65"/>
        <vehicle id="leader" x="651.73" y="755.94" angle="74.99" type="DEFAULT_VEHTYPE@leader" speed="16.07" pos="96.32" lane="E2_0" slope="0.00" acceleration="-0.40"/>
    </timestep>
    <timestep time="7.10">
        <vehicle id="follower" x="619.39" y="747.27" angle="74.99" type="DEFAULT_VEHTYPE@follower" speed="15.44" pos="62.83" lane="E2_0" slope="0.00" acceleration="-1.14"/>
        <vehicle id="leader" x="653.28" y="756.36" angle="74.99" type="DEFAULT_VEHTYPE@leader" speed="16.07" pos="97.92" lane="E2_0" slope="0.00" acceleration="0.00"/>
    </timestep>
    <timestep time="7.20">
        <vehicle id="follower" x="620.89" y="747.67" angle="74.99" type="DEFAULT_VEHTYPE@follower" speed="15.52" pos="64.38" lane="E2_0" slope="0.00" acceleration="0.78"/>
        <vehicle id="leader" x="654.84" y="756.77" angle="74.99" type="DEFAULT_VEHTYPE@leader" speed="16.07" pos="99.53" lane="E2_0" slope="0.00" acceleration="0.00"/>
    </timestep>
    <timestep time="7.30">
        <vehicle id="follower" x="622.39" y="748.07" angle="74.99" type="DEFAULT_VEHTYPE@follower" speed="15.55" pos="65.94" lane="E2_0" slope="0.00" acceleration="0.36"/>
        <vehicle id="leader" x="656.39" y="757.19" angle="74.99" type="DEFAULT_VEHTYPE@leader" speed="16.07" pos="101.14" lane="E2_0" slope="0.00" acceleration="0.00"/>
    </timestep>
    <timestep time="7.40">
        <vehicle id="follower" x="623.89" y="748.48" angle="74.99" type="DEFAULT_VEHTYPE@follower" speed="15.56" pos="67.49" lane="E2_0" slope="0.00" acceleration="0.05"/>
        <vehicle id="leader" x="657.94" y="757.60" angle="74.99" type="DEFAULT_VEHTYPE@leader" speed="16.07" pos="102.74" lane="E2_0" slope="0.00" acceleration="0.00"/>
    </timestep>
    <timestep time="7.50">
        <vehicle id="follower" x="625.39" y="748.88" angle="74.99" type="DEFAULT_VEHTYPE@follower" speed="15.53" pos="69.05" lane="E2_0" slope="0.00" acceleration="-0.34"/>
        <vehicle id="leader" x="659.49" y="758.02" angle="74.99" type="DEFAULT_VEHTYPE@leader" speed="16.07" pos="104.35" lane="E2_0" slope="0.00" acceleration="0.00"/>
    </timestep>
    <timestep time="7.60">
        <vehicle id="follower" x="626.90" y="749.28" angle="74.99" type="DEFAULT_VEHTYPE@follower" speed="15.59" pos="70.60" lane="E2_0" slope="0.00" acceleration="0.67"/>
        <vehicle id="leader" x="661.04" y="758.43" angle="74.99" type="DEFAULT_VEHTYPE@leader" speed="16.01" pos="105.95" lane="E2_0" slope="0.00" acceleration="-0.60"/>
    </timestep>
    <timestep time="7.70">
        <vehicle id="follower" x="628.39" y="749.68" angle="74.99" type="DEFAULT_VEHTYPE@follower" speed="15.45" pos="72.15" lane="E2_0" slope="0.00" acceleration="-1.39"/>
        <vehicle id="leader" x="662.59" y="758.85" angle="74.99" type="DEFAULT_VEHTYPE@leader" speed="16.04" pos="107.56" lane="E2_0" slope="0.00" acceleration="0.30"/>
    </timestep>
    <timestep time="7.80">
        <vehicle id="follower" x="629.88" y="750.08" angle="74.99" type="DEFAULT_VEHTYPE@follower" speed="15.45" pos="73.69" lane="E2_0" slope="0.00" acceleration="-0.06"/>
        <vehicle id="leader" x="664.15" y="759.27" angle="74.99" type="DEFAULT_VEHTYPE@leader" speed="16.16" pos="109.17" lane="E2_0" slope="0.00" acceleration="1.20"/>
    </timestep>
    <timestep time="7.90">
        <vehicle id="follower" x="631.38" y="750.48" angle="74.99" type="DEFAULT_VEHTYPE@follower" speed="15.51" pos="75.25" lane="E2_0" slope="0.00" acceleration="0.63"/>
        <vehicle id="leader" x="665.71" y="759.69" angle="74.99" type="DEFAULT_VEHTYPE@leader" speed="16.18" pos="110.79" lane="E2_0" slope="0.00" acceleration="0.20"/>
    </timestep>
    <timestep time="8.00">
        <vehicle id="follower" x="632.88" y="750.89" angle="74.99" type="DEFAULT_VEHTYPE@follower" speed="15.57" pos="76.80" lane="E2_0" slope="0.00" acceleration="0.64"/>
        <vehicle id="leader" x="667.27" y="760.11" angle="74.99" type="DEFAULT_VEHTYPE@leader" speed="16.15" pos="112.41" lane="E2_0" slope="0.00" acceleration="-0.30"/>
    </timestep>
    <timestep time="8.10">
        <vehicle id="follower" x="634.39" y="751.29" angle="74.99" type="DEFAULT_VEHTYPE@follower" speed="15.58" pos="78.36" lane="E2_0" slope="0.00" acceleration="0.06"/>
        <vehicle id="leader" x="668.84" y="760.53" angle="74.99" type="DEFAULT_VEHTYPE@leader" speed="16.22" pos="114.03" lane="E2_0" slope="0.00" acceleration="0.70"/>
    </timestep>
    <timestep time="8.20">
        <vehicle id="follower" x="635.90" y="751.70" angle="74.99" type="DEFAULT_VEHTYPE@follower" speed="15.66" pos="79.93" lane="E2_0" slope="0.00" acceleration="0.84"/>
        <vehicle id="leader" x="670.41" y="760.95" angle="74.99" type="DEFAULT_VEHTYPE@leader" speed="16.32" pos="115.66" lane="E2_0" slope="0.00" acceleration="1.00"/>
    </timestep>
    <timestep time="8.30">
        <vehicle id="follower" x="637.42" y="752.10" angle="74.99" type="DEFAULT_VEHTYPE@follower" speed="15.69" pos="81.50" lane="E2_0" slope="0.00" acceleration="0.24"/>
        <vehicle id="leader" x="671.99" y="761.37" angle="74.99" type="DEFAULT_VEHTYPE@leader" speed="16.31" pos="117.29" lane="E2_0" slope="0.00" acceleration="-0.10"/>
    </timestep>
    <timestep time="8.40">
        <vehicle id="follower" x="638.94" y="752.51" angle="74.99" type="DEFAULT_VEHTYPE@follower" speed="15.78" pos="83.08" lane="E2_0" slope="0.00" acceleration="0.92"/>
        <vehicle id="leader" x="673.56" y="761.79" angle="74.99" type="DEFAULT_VEHTYPE@leader" speed="16.27" pos="118.92" lane="E2_0" slope="0.00" acceleration="-0.40"/>
    </timestep>
    <timestep time="8.50">
        <vehicle id="follower" x="640.46" y="752.92" angle="74.99" type="DEFAULT_VEHTYPE@follower" speed="15.67" pos="84.64" lane="E2_0" slope="0.00" acceleration="-1.11"/>
        <vehicle id="leader" x="675.14" y="762.21" angle="74.99" type="DEFAULT_VEHTYPE@leader" speed="16.30" pos="120.55" lane="E2_0" slope="0.00" acceleration="0.30"/>
    </timestep>
    <timestep time="8.60">
        <vehicle id="follower" x="641.97" y="753.32" angle="74.99" type="DEFAULT_VEHTYPE@follower" speed="15.64" pos="86.21" lane="E2_0" slope="0.00" acceleration="-0.30"/>
        <vehicle id="leader" x="676.72" y="762.64" angle="74.99" type="DEFAULT_VEHTYPE@leader" speed="16.40" pos="122.19" lane="E2_0" slope="0.00" acceleration="1.00"/>
    </timestep>
    <timestep time="8.70">
        <vehicle id="follower" x="643.50" y="753.73" angle="74.99" type="DEFAULT_VEHTYPE@follower" speed="15.87" pos="87.79" lane="E2_0" slope="0.00" acceleration="2.32"/>
        <vehicle id="leader" x="678.32" y="763.07" angle="74.99" type="DEFAULT_VEHTYPE@leader" speed="16.54" pos="123.84" lane="E2_0" slope="0.00" acceleration="1.40"/>
    </timestep>
    <timestep time="8.80">
        <vehicle id="follower" x="645.03" y="754.14" angle="74.99" type="DEFAULT_VEHTYPE@follower" speed="15.80" pos="89.37" lane="E2_0" slope="0.00" acceleration="-0.73"/>
        <vehicle id="leader" x="679.92" y="763.50" angle="74.99" type="DEFAULT_VEHTYPE@leader" speed="16.60" pos="125.50" lane="E2_0" slope="0.00" acceleration="0.60"/>
    </timestep>
    <timestep time="8.90">