<?xml version="1.0" encoding="UTF-8"?>

<!-- generated on 2023-04-04 14:17:38 by Eclipse SUMO sumo Version 1.16.0
<configuration xmlns:xsi="http://www.w3.org/2001/XMLSchema-instance" xsi:noNamespaceSchemaLocation="http://sumo.dlr.de/xsd/sumoConfiguration.xsd">

    <input>
        <net-file value="c:\Users\aryak\Projects\cf-sumo\sumo-xml\net.net.xml"/>
    </input>

    <output>
        <fcd-output value="c:\Users\aryak\Projects\cf-sumo\sumo-xml\output\525_fcd.xml"/>
        <fcd-output.acceleration value="true"/>
    </output>

    <time>
        <step-length value="0.1"/>
    </time>

    <report>
        <no-step-log value="true"/>
    </report>

    <traci_server>
        <remote-port value="49159"/>
    </traci_server>

</configuration>
-->

<fcd-export xmlns:xsi="http://www.w3.org/2001/XMLSchema-instance" xsi:noNamespaceSchemaLocation="http://sumo.dlr.de/xsd/fcd_file.xsd">
    <timestep time="0.00">
        <vehicle id="leader" x="563.63" y="732.32" angle="74.99" type="DEFAULT_VEHTYPE@leader" speed="10.35" pos="5.10" lane="E2_0" slope="0.00" acceleration="0.00"/>
    </timestep>
    <timestep time="0.10">
        <vehicle id="leader" x="564.64" y="732.59" angle="74.99" type="DEFAULT_VEHTYPE@leader" speed="10.47" pos="6.15" lane="E2_0" slope="0.00" acceleration="1.20"/>
    </timestep>
    <timestep time="0.20">
        <vehicle id="leader" x="565.66" y="732.87" angle="74.99" type="DEFAULT_VEHTYPE@leader" speed="10.59" pos="7.21" lane="E2_0" slope="0.00" acceleration="1.20"/>
    </timestep>
    <timestep time="0.30">
        <vehicle id="leader" x="566.68" y="733.14" angle="74.99" type="DEFAULT_VEHTYPE@leader" speed="10.53" pos="8.26" lane="E2_0" slope="0.00" acceleration="-0.60"/>
    </timestep>
    <timestep time="0.40">
        <vehicle id="leader" x="567.69" y="733.41" angle="74.99" type="DEFAULT_VEHTYPE@leader" speed="10.48" pos="9.31" lane="E2_0" slope="0.00" acceleration="-0.50"/>
    </timestep>
    <timestep time="0.50">
        <vehicle id="leader" x="568.71" y="733.68" angle="74.99" type="DEFAULT_VEHTYPE@leader" speed="10.60" pos="10.37" lane="E2_0" slope="0.00" acceleration="1.20"/>
    </timestep>
    <timestep time="0.60">
        <vehicle id="leader" x="569.75" y="733.96" angle="74.99" type="DEFAULT_VEHTYPE@leader" speed="10.72" pos="11.44" lane="E2_0" slope="0.00" acceleration="1.20"/>
    </timestep>
    <timestep time="0.70">
        <vehicle id="leader" x="570.79" y="734.24" angle="74.99" type="DEFAULT_VEHTYPE@leader" speed="10.78" pos="12.52" lane="E2_0" slope="0.00" acceleration="0.60"/>
    </timestep>
    <timestep time="0.80">
        <vehicle id="leader" x="571.83" y="734.52" angle="74.99" type="DEFAULT_VEHTYPE@leader" speed="10.78" pos="13.59" lane="E2_0" slope="0.00" acceleration="0.00"/>
    </timestep>
    <timestep time="0.90">
        <vehicle id="leader" x="572.88" y="734.80" angle="74.99" type="DEFAULT_VEHTYPE@leader" speed="10.82" pos="14.68" lane="E2_0" slope="0.00" acceleration="0.40"/>
    </timestep>
    <timestep time="1.00">
        <vehicle id="leader" x="573.92" y="735.08" angle="74.99" type="DEFAULT_VEHTYPE@leader" speed="10.82" pos="15.76" lane="E2_0" slope="0.00" acceleration="0.00"/>
    </timestep>
    <timestep time="1.10">
        <vehicle id="leader" x="574.97" y="735.36" angle="74.99" type="DEFAULT_VEHTYPE@leader" speed="10.82" pos="16.84" lane="E2_0" slope="0.00" acceleration="0.00"/>
    </timestep>
    <timestep time="1.20">
        <vehicle id="leader" x="576.01" y="735.64" angle="74.99" type="DEFAULT_VEHTYPE@leader" speed="10.82" pos="17.92" lane="E2_0" slope="0.00" acceleration="0.00"/>
    </timestep>
    <timestep time="1.30">
        <vehicle id="leader" x="577.07" y="735.92" angle="74.99" type="DEFAULT_VEHTYPE@leader" speed="10.94" pos="19.02" lane="E2_0" slope="0.00" acceleration="1.20"/>
    </timestep>
    <timestep time="1.40">
        <vehicle id="leader" x="578.14" y="736.21" angle="74.99" type="DEFAULT_VEHTYPE@leader" speed="11.06" pos="20.12" lane="E2_0" slope="0.00" acceleration="1.20"/>
    </timestep>
    <timestep time="1.50">
        <vehicle id="leader" x="579.22" y="736.50" angle="74.99" type="DEFAULT_VEHTYPE@leader" speed="11.18" pos="21.24" lane="E2_0" slope="0.00" acceleration="1.20"/>
    </timestep>
    <timestep time="1.60">
        <vehicle id="leader" x="580.31" y="736.79" angle="74.99" type="DEFAULT_VEHTYPE@leader" speed="11.27" pos="22.37" lane="E2_0" slope="0.00" acceleration="0.90"/>
    </timestep>
    <timestep time="1.70">
        <vehicle id="leader" x="581.39" y="737.08" angle="74.99" type="DEFAULT_VEHTYPE@leader" speed="11.27" pos="23.50" lane="E2_0" slope="0.00" acceleration="0.00"/>
    </timestep>
    <timestep time="1.80">
        <vehicle id="leader" x="582.48" y="737.38" angle="74.99" type="DEFAULT_VEHTYPE@leader" speed="11.27" pos="24.62" lane="E2_0" slope="0.00" acceleration="0.00"/>
    </timestep>
    <timestep time="1.90">
        <vehicle id="leader" x="583.58" y="737.67" angle="74.99" type="DEFAULT_VEHTYPE@leader" speed="11.39" pos="25.76" lane="E2_0" slope="0.00" acceleration="1.20"/>
    </timestep>
    <timestep time="2.00">
        <vehicle id="leader" x="584.69" y="737.97" angle="74.99" type="DEFAULT_VEHTYPE@leader" speed="11.51" pos="26.91" lane="E2_0" slope="0.00" acceleration="1.20"/>
    </timestep>
    <timestep time="2.10">
        <vehicle id="leader" x="585.82" y="738.27" angle="74.99" type="DEFAULT_VEHTYPE@leader" speed="11.63" pos="28.07" lane="E2_0" slope="0.00" acceleration="1.20"/>
    </timestep>
    <timestep time="2.20">
        <vehicle id="leader" x="586.95" y="738.57" angle="74.99" type="DEFAULT_VEHTYPE@leader" speed="11.75" pos="29.25" lane="E2_0" slope="0.00" acceleration="1.20"/>
    </timestep>
    <timestep time="2.30">
        <vehicle id="leader" x="588.09" y="738.88" angle="74.99" type="DEFAULT_VEHTYPE@leader" speed="11.82" pos="30.43" lane="E2_0" slope="0.00" acceleration="0.70"/>
    </timestep>
    <timestep time="2.40">
        <vehicle id="leader" x="589.24" y="739.19" angle="74.99" type="DEFAULT_VEHTYPE@leader" speed="11.82" pos="31.61" lane="E2_0" slope="0.00" acceleration="0.00"/>
    </timestep>
    <timestep time="2.50">
        <vehicle id="leader" x="590.38" y="739.49" angle="74.99" type="DEFAULT_VEHTYPE@leader" speed="11.84" pos="32.80" lane="E2_0" slope="0.00" acceleration="0.20"/>
    </timestep>
    <timestep time="2.60">
        <vehicle id="leader" x="591.53" y="739.80" angle="74.99" type="DEFAULT_VEHTYPE@leader" speed="11.96" pos="33.99" lane="E2_0" slope="0.00" acceleration="1.20"/>
    </timestep>
    <timestep time="2.70">
        <vehicle id="leader" x="592.70" y="740.11" angle="74.99" type="DEFAULT_VEHTYPE@leader" speed="12.04" pos="35.20" lane="E2_0" slope="0.00" acceleration="0.80"/>
    </timestep>
    <timestep time="2.80">
        <vehicle id="leader" x="593.86" y="740.43" angle="74.99" type="DEFAULT_VEHTYPE@leader" speed="12.07" pos="36.41" lane="E2_0" slope="0.00" acceleration="0.32"/>
    </timestep>
    <timestep time="2.90">
        <vehicle id="leader" x="595.03" y="740.74" angle="74.99" type="DEFAULT_VEHTYPE@leader" speed="12.07" pos="37.61" lane="E2_0" slope="0.00" acceleration="0.00"/>
    </timestep>
    <timestep time="3.00">
        <vehicle id="follower" x="563.63" y="732.32" angle="74.99" type="DEFAULT_VEHTYPE@follower" speed="10.35" pos="5.10" lane="E2_0" slope="0.00" acceleration="0.00"/>
        <vehicle id="leader" x="596.20" y="741.05" angle="74.99" type="DEFAULT_VEHTYPE@leader" speed="12.07" pos="38.82" lane="E2_0" slope="0.00" acceleration="0.00"/>
    </timestep>
    <timestep time="3.10">
        <vehicle id="follower" x="564.64" y="732.59" angle="74.99" type="DEFAULT_VEHTYPE@follower" speed="10.45" pos="6.15" lane="E2_0" slope="0.00" acceleration="1.02"/>
        <vehicle id="leader" x="597.36" y="741.36" angle="74.99" type="DEFAULT_VEHTYPE@leader" speed="12.07" pos="40.03" lane="E2_0" slope="0.00" acceleration="0.00"/>
    </timestep>
    <timestep time="3.20">
        <vehicle id="follower" x="565.66" y="732.86" angle="74.99" type="DEFAULT_VEHTYPE@follower" speed="10.56" pos="7.20" lane="E2_0" slope="0.00" acceleration="1.10"/>
        <vehicle id="leader" x="598.53" y="741.68" angle="74.99" type="DEFAULT_VEHTYPE@leader" speed="12.07" pos="41.23" lane="E2_0" slope="0.00" acceleration="0.00"/>
    </timestep>
    <timestep time="3.30">
        <vehicle id="follower" x="566.69" y="733.14" angle="74.99" type="DEFAULT_VEHTYPE@follower" speed="10.68" pos="8.27" lane="E2_0" slope="0.00" acceleration="1.18"/>
        <vehicle id="leader" x="599.69" y="741.99" angle="74.99" type="DEFAULT_VEHTYPE@leader" speed="12.07" pos="42.44" lane="E2_0" slope="0.00" acceleration="0.00"/>
    </timestep>
    <timestep time="3.40">
        <vehicle id="follower" x="567.73" y="733.42" angle="74.99" type="DEFAULT_VEHTYPE@follower" speed="10.78" pos="9.35" lane="E2_0" slope="0.00" acceleration="1.00"/>
        <vehicle id="leader" x="600.86" y="742.30" angle="74.99" type="DEFAULT_VEHTYPE@leader" speed="12.07" pos="43.65" lane="E2_0" slope="0.00" acceleration="0.00"/>
    </timestep>
    <timestep time="3.50">
        <vehicle id="follower" x="568.78" y="733.70" angle="74.99" type="DEFAULT_VEHTYPE@follower" speed="10.89" pos="10.44" lane="E2_0" slope="0.00" acceleration="1.12"/>
        <vehicle id="leader" x="602.03" y="742.61" angle="74.99" type="DEFAULT_VEHTYPE@leader" speed="12.07" pos="44.86" lane="E2_0" slope="0.00" acceleration="0.00"/>
    </timestep>
    <timestep time="3.60">
        <vehicle id="follower" x="569.84" y="733.99" angle="74.99" type="DEFAULT_VEHTYPE@follower" speed="10.96" pos="11.53" lane="E2_0" slope="0.00" acceleration="0.62"/>
        <vehicle id="leader" x="603.19" y="742.93" angle="74.99" type="DEFAULT_VEHTYPE@leader" speed="12.07" pos="46.06" lane="E2_0" slope="0.00" acceleration="0.00"/>
    </timestep>
    <timestep time="3.70">
        <vehicle id="follower" x="570.91" y="734.27" angle="74.99" type="DEFAULT_VEHTYPE@follower" speed="11.06" pos="12.64" lane="E2_0" slope="0.00" acceleration="1.07"/>
        <vehicle id="leader" x="604.36" y="743.24" angle="74.99" type="DEFAULT_VEHTYPE@leader" speed="12.07" pos="47.27" lane="E2_0" slope="0.00" acceleration="0.00"/>
    </timestep>
    <timestep time="3.80">
        <vehicle id="follower" x="571.98" y="734.56" angle="74.99" type="DEFAULT_VEHTYPE@follower" speed="11.15" pos="13.75" lane="E2_0" slope="0.00" acceleration="0.86"/>
        <vehicle id="leader" x="605.52" y="743.55" angle="74.99" type="DEFAULT_VEHTYPE@leader" speed="12.07" pos="48.48" lane="E2_0" slope="0.00" acceleration="0.00"/>
    </timestep>
    <timestep time="3.90">
        <vehicle id="follower" x="573.07" y="734.85" angle="74.99" type="DEFAULT_VEHTYPE@follower" speed="11.22" pos="14.88" lane="E2_0" slope="0.00" acceleration="0.71"/>
        <vehicle id="leader" x="606.69" y="743.87" angle="74.99" type="DEFAULT_VEHTYPE@leader" speed="12.07" pos="49.68" lane="E2_0" slope="0.00" acceleration="0.00"/>
    </timestep>
    <timestep time="4.00">
        <vehicle id="follower" x="574.16" y="735.14" angle="74.99" type="DEFAULT_VEHTYPE@follower" speed="11.30" pos="16.01" lane="E2_0" slope="0.00" acceleration="0.80"/>
        <vehicle id="leader" x="607.86" y="744.18" angle="74.99" type="DEFAULT_VEHTYPE@leader" speed="12.07" pos="50.89" lane="E2_0" slope="0.00" acceleration="0.00"/>
    </timestep>
    <timestep time="4.10">
        <vehicle id="follower" x="575.26" y="735.44" angle="74.99" type="DEFAULT_VEHTYPE@follower" speed="11.38" pos="17.14" lane="E2_0" slope="0.00" acceleration="0.84"/>
        <vehicle id="leader" x="609.02" y="744.49" angle="74.99" type="DEFAULT_VEHTYPE@leader" speed="12.07" pos="52.10" lane="E2_0" slope="0.00" acceleration="0.00"/>
    </timestep>
    <timestep time="4.20">
        <vehicle id="follower" x="576.36" y="735.74" angle="74.99" type="DEFAULT_VEHTYPE@follower" speed="11.43" pos="18.29" lane="E2_0" slope="0.00" acceleration="0.48"/>
        <vehicle id="leader" x="610.19" y="744.80" angle="74.99" type="DEFAULT_VEHTYPE@leader" speed="12.07" pos="53.31" lane="E2_0" slope="0.00" acceleration="0.00"/>
    </timestep>
    <timestep time="4.30">
        <vehicle id="follower" x="577.47" y="736.03" angle="74.99" type="DEFAULT_VEHTYPE@follower" speed="11.48" pos="19.43" lane="E2_0" slope="0.00" acceleration="0.48"/>
        <vehicle id="leader" x="611.35" y="745.12" angle="74.99" type="DEFAULT_VEHTYPE@leader" speed="12.07" pos="54.51" lane="E2_0" slope="0.00" acceleration="0.00"/>
    </timestep>
    <timestep time="4.40">
        <vehicle id="follower" x="578.58" y="736.33" angle="74.99" type="DEFAULT_VEHTYPE@follower" speed="11.47" pos="20.58" lane="E2_0" slope="0.00" acceleration="-0.07"/>
        <vehicle id="leader" x="612.52" y="745.43" angle="74.99" type="DEFAULT_VEHTYPE@leader" speed="12.07" pos="55.72" lane="E2_0" slope="0.00" acceleration="0.00"/>
    </timestep>
    <timestep time="4.50">
        <vehicle id="follower" x="579.69" y="736.63" angle="74.99" type="DEFAULT_VEHTYPE@follower" speed="11.46" pos="21.73" lane="E2_0" slope="0.00" acceleration="-0.13"/>
        <vehicle id="leader" x="613.69" y="745.74" angle="74.99" type="DEFAULT_VEHTYPE@leader" speed="12.07" pos="56.93" lane="E2_0" slope="0.00" acceleration="0.00"/>
    </timestep>
    <timestep time="4.60">
        <vehicle id="follower" x="580.80" y="736.92" angle="74.99" type="DEFAULT_VEHTYPE@follower" speed="11.49" pos="22.88" lane="E2_0" slope="0.00" acceleration="0.29"/>
        <vehicle id="leader" x="614.85" y="746.05" angle="74.99" type="DEFAULT_VEHTYPE@leader" speed="12.07" pos="58.13" lane="E2_0" slope="0.00" acceleration="0.00"/>
    </timestep>
    <timestep time="4.70">
        <vehicle id="follower" x="581.91" y="737.22" angle="74.99" type="DEFAULT_VEHTYPE@follower" speed="11.54" pos="24.03" lane="E2_0" slope="0.00" acceleration="0.46"/>
        <vehicle id="leader" x="616.02" y="746.37" angle="74.99" type="DEFAULT_VEHTYPE@leader" speed="12.07" pos="59.34" lane="E2_0" slope="0.00" acceleration="0.00"/>
    </timestep>
    <timestep time="4.80">
        <vehicle id="follower" x="583.02" y="737.52" angle="74.99" type="DEFAULT_VEHTYPE@follower" speed="11.51" pos="25.18" lane="E2_0" slope="0.00" acceleration="-0.22"/>
        <vehicle id="leader" x="617.18" y="746.68" angle="74.99" type="DEFAULT_VEHTYPE@leader" speed="12.07" pos="60.55" lane="E2_0" slope="0.00" acceleration="0.00"/>
    </timestep>
    <timestep time="4.90">
        <vehicle id="follower" x="584.14" y="737.82" angle="74.99" type="DEFAULT_VEHTYPE@follower" speed="11.55" pos="26.34" lane="E2_0" slope="0.00" acceleration="0.38"/>
        <vehicle id="leader" x="618.35" y="746.99" angle="74.99" type="DEFAULT_VEHTYPE@leader" speed="12.07" pos="61.76" lane="E2_0" slope="0.00" acceleration="0.00"/>
    </timestep>
    <timestep time="5.00">
        <vehicle id="follower" x="585.25" y="738.12" angle="74.99" type="DEFAULT_VEHTYPE@follower" speed="11.50" pos="27.49" lane="E2_0" slope="0.00" acceleration="-0.47"/>
        <vehicle id="leader" x="619.52" y="747.30" angle="74.99" type="DEFAULT_VEHTYPE@leader" speed="12.07" pos="62.96" lane="E2_0" slope="0.00" acceleration="0.00"/>
    </timestep>
    <timestep time="5.10">
        <vehicle id="follower" x="586.37" y="738.42" angle="74.99" type="DEFAULT_VEHTYPE@follower" speed="11.55" pos="28.64" lane="E2_0" slope="0.00" acceleration="0.49"/>
        <vehicle id="leader" x="620.68" y="747.62" angle="74.99" type="DEFAULT_VEHTYPE@leader" speed="12.07" pos="64.17" lane="E2_0" slope="0.00" acceleration="0.00"/>
    </timestep>
    <timestep time="5.20">
        <vehicle id="follower" x="587.48" y="738.72" angle="74.99" type="DEFAULT_VEHTYPE@follower" speed="11.55" pos="29.80" lane="E2_0" slope="0.00" acceleration="-0.05"/>
        <vehicle id="leader" x="621.85" y="747.93" angle="74.99" type="DEFAULT_VEHTYPE@leader" speed="12.07" pos="65.38" lane="E2_0" slope="0.00" acceleration="0.00"/>
    </timestep>
    <timestep time="5.30">
        <vehicle id="follower" x="588.60" y="739.02" angle="74.99" type="DEFAULT_VEHTYPE@follower" speed="11.58" pos="30.95" lane="E2_0" slope="0.00" acceleration="0.32"/>
        <vehicle id="leader" x="623.01" y="748.24" angle="74.99" type="DEFAULT_VEHTYPE@leader" speed="12.07" pos="66.59" lane="E2_0" slope="0.00" acceleration="0.00"/>
    </timestep>
    <timestep time="5.40">
        <vehicle id="follower" x="589.72" y="739.32" angle="74.99" type="DEFAULT_VEHTYPE@follower" speed="11.59" pos="32.11" lane="E2_0" slope="0.00" acceleration="0.14"/>
        <vehicle id="leader" x="624.18" y="748.55" angle="74.99" type="DEFAULT_VEHTYPE@leader" speed="12.07" pos="67.79" lane="E2_0" slope="0.00" acceleration="0.00"/>
    </timestep>
    <timestep time="5.50">
        <vehicle id="follower" x="590.84" y="739.62" angle="74.99" type="DEFAULT_VEHTYPE@follower" speed="11.58" pos="33.27" lane="E2_0" slope="0.00" acceleration="-0.08"/>
        <vehicle id="leader" x="625.35" y="748.87" angle="74.99" type="DEFAULT_VEHTYPE@leader" speed="12.07" pos="69.00" lane="E2_0" slope="0.00" acceleration="0.00"/>
    </timestep>
    <timestep time="5.60">
        <vehicle id="follower" x="591.96" y="739.92" angle="74.99" type="DEFAULT_VEHTYPE@follower" speed="11.60" pos="34.43" lane="E2_0" slope="0.00" acceleration="0.16"/>
        <vehicle id="leader" x="626.51" y="749.18" angle="74.99" type="DEFAULT_VEHTYPE@leader" speed="12.07" pos="70.21" lane="E2_0" slope="0.00" acceleration="0.00"/>
    </timestep>
    <timestep time="5.70">
        <vehicle id="follower" x="593.08" y="740.22" angle="74.99" type="DEFAULT_VEHTYPE@follower" speed="11.60" pos="35.59" lane="E2_0" slope="0.00" acceleration="-0.05"/>
        <vehicle id="leader" x="627.68" y="749.49" angle="74.99" type="DEFAULT_VEHTYPE@leader" speed="12.07" pos="71.41" lane="E2_0" slope="0.00" acceleration="0.00"/>
    </timestep>
    <timestep time="5.80">
        <vehicle id="follower" x="594.20" y="740.52" angle="74.99" type="DEFAULT_VEHTYPE@follower" speed="11.61" pos="36.75" lane="E2_0" slope="0.00" acceleration="0.10"/>
        <vehicle id="leader" x="628.84" y="749.80" angle="74.99" type="DEFAULT_VEHTYPE@leader" speed="12.07" pos="72.62" lane="E2_0" slope="0.00" acceleration="0.00"/>
    </timestep>
    <timestep time="5.90">
        <vehicle id="follower" x="595.32" y="740.82" angle="74.99" type="DEFAULT_VEHTYPE@follower" speed="11.59" pos="37.91" lane="E2_0" slope="0.00" acceleration="-0.19"/>
        <vehicle id="leader" x="630.01" y="750.12" angle="74.99" type="DEFAULT_VEHTYPE@leader" speed="12.07" pos="73.83" lane="E2_0" slope="0.00" acceleration="0.00"/>
    </timestep>
    <timestep time="6.00">
        <vehicle id="follower" x="596.44" y="741.12" angle="74.99" type="DEFAULT_VEHTYPE@follower" speed="11.62" pos="39.07" lane="E2_0" slope="0.00" acceleration="0.32"/>
        <vehicle id="leader" x="631.18" y="750.43" angle="74.99" type="DEFAULT_VEHTYPE@leader" speed="12.07" pos="75.04" lane="E2_0" slope="0.00" acceleration="0.00"/>
    </timestep>
    <timestep time="6.10">
        <vehicle id="follower" x="597.56" y="741.42" angle="74.99" type="DEFAULT_VEHTYPE@follower" speed="11.59" pos="40.23" lane="E2_0" slope="0.00" acceleration="-0.26"/>
        <vehicle id="leader" x="632.34" y="750.74" angle="74.99" type="DEFAULT_VEHTYPE@leader" speed="12.07" pos="76.24" lane="E2_0" slope="0.00" acceleration="0.00"/>
    </timestep>
    <timestep time="6.20">
        <vehicle id="follower" x="598.69" y="741.72" angle="74.99" type="DEFAULT_VEHTYPE@follower" speed="11.64" pos="41.40" lane="E2_0" slope="0.00" acceleration="0.48"/>
        <vehicle id="leader" x="633.51" y="751.05" angle="74.99" type="DEFAULT_VEHTYPE@leader" speed="12.07" pos="77.45" lane="E2_0" slope="0.00" acceleration="0.00"/>
    </timestep>
    <timestep time="6.30">
        <vehicle id="follower" x="599.81" y="742.02" angle="74.99" type="DEFAULT_VEHTYPE@follower" speed="11.61" pos="42.56" lane="E2_0" slope="0.00" acceleration="-0.27"/>
        <vehicle id="leader" x="634.67" y="751.37" angle="74.99" type="DEFAULT_VEHTYPE@leader" speed="12.07" pos="78.66" lane="E2_0" slope="0.00" acceleration="0.00"/>
    </timestep>
    <timestep time="6.40">
        <vehicle id="follower" x="600.93" y="742.32" angle="74.99" type="DEFAULT_VEHTYPE@follower" speed="11.62" pos="43.72" lane="E2_0" slope="0.00" acceleration="0.05"/>
        <vehicle id="leader" x="635.84" y="751.68" angle="74.99" type="DEFAULT_VEHTYPE@leader" speed="12.07" pos="79.86" lane="E2_0" slope="0.00" acceleration="0.00"/>
    </timestep>
    <timestep time="6.50">
        <vehicle id="follower" x="602.06" y="742.62" angle="74.99" type="DEFAULT_VEHTYPE@follower" speed="11.66" pos="44.89" lane="E2_0" slope="0.00" acceleration="0.37"/>
        <vehicle id="leader" x="637.01" y="751.99" angle="74.99" type="DEFAULT_VEHTYPE@leader" speed="12.07" pos="81.07" lane="E2_0" slope="0.00" acceleration="0.00"/>
    </timestep>
    <timestep time="6.60">
        <vehicle id="follower" x="603.18" y="742.92" angle="74.99" type="DEFAULT_VEHTYPE@follower" speed="11.66" pos="46.05" lane="E2_0" slope="0.00" acceleration="0.05"/>
        <vehicle id="leader" x="638.17" y="752.30" angle="74.99" type="DEFAULT_VEHTYPE@leader" speed="12.07" pos="82.28" lane="E2_0" slope="0.00" acceleration="0.00"/>
    </timestep>
    <timestep time="6.70">
        <vehicle id="follower" x="604.31" y="743.23" angle="74.99" type="DEFAULT_VEHTYPE@follower" speed="11.66" pos="47.22" lane="E2_0" slope="0.00" acceleration="-0.00"/>
        <vehicle id="leader" x="639.34" y="752.62" angle="74.99" type="DEFAULT_VEHTYPE@leader" speed="12.07" pos="83.49" lane="E2_0" slope="0.00" acceleration="0.00"/>
    </timestep>
    <timestep time="6.80">
        <vehicle id="follower" x="605.44" y="743.53" angle="74.99" type="DEFAULT_VEHTYPE@follower" speed="11.68" pos="48.39" lane="E2_0" slope="0.00" acceleration="0.23"/>
        <vehicle id="leader" x="640.50" y="752.93" angle="74.99" type="DEFAULT_VEHTYPE@leader" speed="12.07" pos="84.69" lane="E2_0" slope="0.00" acceleration="0.00"/>
    </timestep>
    <timestep time="6.90">
        <vehicle id="follower" x="606.57" y="743.83" angle="74.99" type="DEFAULT_VEHTYPE@follower" speed="11.69" pos="49.56" lane="E2_0" slope="0.00" acceleration="0.04"/>
        <vehicle id="leader" x="641.67" y="753.24" angle="74.99" type="DEFAULT_VEHTYPE@leader" speed="12.07" pos="85.90" lane="E2_0" slope="0.00" acceleration="0.00"/>
    </timestep>
    <timestep time="7.00">
        <vehicle id="follower" x="607.70" y="744.13" angle="74.99" type="DEFAULT_VEHTYPE@follower" speed="11.71" pos="50.73" lane="E2_0" slope="0.00" acceleration="0.21"/>
        <vehicle id="leader" x="642.84" y="753.56" angle="74.99" type="DEFAULT_VEHTYPE@leader" speed="12.07" pos="87.11" lane="E2_0" slope="0.00" acceleration="0.00"/>
    </timestep>
    <timestep time="7.10">
        <vehicle id="follower" x="608.82" y="744.44" angle="74.99" type="DEFAULT_VEHTYPE@follower" speed="11.68" pos="51.89" lane="E2_0" slope="0.00" acceleration="-0.28"/>
        <vehicle id="leader" x="644.00" y="753.87" angle="74.99" type="DEFAULT_VEHTYPE@leader" speed="12.07" pos="88.31" lane="E2_0" slope="0.00" acceleration="0.00"/>
    </timestep>
    <timestep time="7.20">
        <vehicle id="follower" x="609.96" y="744.74" angle="74.99" type="DEFAULT_VEHTYPE@follower" speed="11.71" pos="53.07" lane="E2_0" slope="0.00" acceleration="0.29"/>
        <vehicle id="leader" x="645.17" y="754.18" angle="74.99" type="DEFAULT_VEHTYPE@leader" speed="12.07" pos="89.52" lane="E2_0" slope="0.00" acceleration="0.00"/>
    </timestep>
    <timestep time="7.30">
        <vehicle id="follower" x="611.09" y="745.04" angle="74.99" type="DEFAULT_VEHTYPE@follower" speed="11.73" pos="54.24" lane="E2_0" slope="0.00" acceleration="0.15"/>
        <vehicle id="leader" x="646.33" y="754.49" angle="74.99" type="DEFAULT_VEHTYPE@leader" speed="12.07" pos="90.73" lane="E2_0" slope="0.00" acceleration="0.00"/>
    </timestep>
    <timestep time="7.40">
        <vehicle id="follower" x="612.22" y="745.35" angle="74.99" type="DEFAULT_VEHTYPE@follower" speed="11.73" pos="55.41" lane="E2_0" slope="0.00" acceleration="0.05"/>
        <vehicle id="leader" x="647.50" y="754.81" angle="74.99" type="DEFAULT_VEHTYPE@leader" speed="12.07" pos="91.94" lane="E2_0" slope="0.00" acceleration="0.00"/>
    </timestep>
    <timestep time="7.50">
        <vehicle id="follower" x="613.35" y="745.65" angle="74.99" type="DEFAULT_VEHTYPE@follower" speed="11.72" pos="56.58" lane="E2_0" slope="0.00" acceleration="-0.08"/>
        <vehicle id="leader" x="648.67" y="755.12" angle="74.99" type="DEFAULT_VEHTYPE@leader" speed="12.07" pos="93.14" lane="E2_0" slope="0.00" acceleration="0.00"/>
    </timestep>
    <timestep time="7.60">
        <vehicle id="follower" x="614.49" y="745.96" angle="74.99" type="DEFAULT_VEHTYPE@follower" speed="11.75" pos="57.76" lane="E2_0" slope="0.00" acceleration="0.25"/>
        <vehicle id="leader" x="649.83" y="755.43" angle="74.99" type="DEFAULT_VEHTYPE@leader" speed="12.07" pos="94.35" lane="E2_0" slope="0.00" acceleration="0.00"/>
    </timestep>
    <timestep time="7.70">
        <vehicle id="follower" x="615.62" y="746.26" angle="74.99" type="DEFAULT_VEHTYPE@follower" speed="11.71" pos="58.93" lane="E2_0" slope="0.00" acceleration="-0.33"/>
        <vehicle id="leader" x="651.00" y="755.74" angle="74.99" type="DEFAULT_VEHTYPE@leader" speed="12.07" pos="95.56" lane="E2_0" slope="0.00" acceleration="0.00"/>
    </timestep>
    <timestep time="7.80">
        <vehicle id="follower" x="616.75" y="746.56" angle="74.99" type="DEFAULT_VEHTYPE@follower" speed="11.71" pos="60.10" lane="E2_0" slope="0.00" acceleration="-0.04"/>
        <vehicle id="leader" x="652.17" y="756.06" angle="74.99" type="DEFAULT_VEHTYPE@leader" speed="12.07" pos="96.77" lane="E2_0" slope="0.00" acceleration="0.00"/>
    </timestep>
    <timestep time="7.90">
        <vehicle id="follower" x="617.88" y="746.87" angle="74.99" type="DEFAULT_VEHTYPE@follower" speed="11.71" pos="61.27" lane="E2_0" slope="0.00" acceleration="0.02"/>
        <vehicle id="leader" x="653.33" y="756.37" angle="74.99" type="DEFAULT_VEHTYPE@leader" speed="12.07" pos="97.97" lane="E2_0" slope="0.00" acceleration="0.00"/>
    </timestep>
    <timestep time="8.00">
        <vehicle id="follower" x="619.02" y="747.17" angle="74.99" type="DEFAULT_VEHTYPE@follower" speed="11.73" pos="62.45" lane="E2_0" slope="0.00" acceleration="0.20"/>
        <vehicle id="leader" x="654.50" y="756.68" angle="74.99" type="DEFAULT_VEHTYPE@leader" speed="12.07" pos="99.18" lane="E2_0" slope="0.00" acceleration="0.00"/>
    </timestep>
    <timestep time="8.10">
        <vehicle id="follower" x="620.15" y="747.47" angle="74.99" type="DEFAULT_VEHTYPE@follower" speed="11.74" pos="63.62" lane="E2_0" slope="0.00" acceleration="0.10"/>
        <vehicle id="leader" x="655.66" y="756.99" angle="74.99" type="DEFAULT_VEHTYPE@leader" speed="12.07" pos="100.39" lane="E2_0" slope="0.00" acceleration="0.00"/>
    </timestep>
    <timestep time="8.20">
        <vehicle id="follower" x="621.29" y="747.78" angle="74.99" type="DEFAULT_VEHTYPE@follower" speed="11.76" pos="64.80" lane="E2_0" slope="0.00" acceleration="0.18"/>
        <vehicle id="leader" x="656.83" y="757.31" angle="74.99" type="DEFAULT_VEHTYPE@leader" speed="12.07" pos="101.59" lane="E2_0" slope="0.00" acceleration="0.00"/>
    </timestep>
    <timestep time="8.30">
        <vehicle id="follower" x="622.42" y="748.08" angle="74.99" type="DEFAULT_VEHTYPE@follower" speed="11.75" pos="65.97" lane="E2_0" slope="0.00" acceleration="-0.08"/>
        <vehicle id="leader" x="658.00" y="757.62" angle="74.99" type="DEFAULT_VEHTYPE@leader" speed="12.07" pos="102.80" lane="E2_0" slope="0.00" acceleration="0.00"/>
    </timestep>
    <timestep time="8.40">
        <vehicle id="follower" x="623.56" y="748.39" angle="74.99" type="DEFAULT_VEHTYPE@follower" speed="11.79" pos="67.15" lane="E2_0" slope="0.00" acceleration="0.35"/>
        <vehicle id="leader" x="659.16" y="757.93" angle="74.99" type="DEFAULT_VEHTYPE@leader" speed="12.07" pos="104.01" lane="E2_0" slope="0.00" acceleration="0.00"/>
    </timestep>
    <timestep time="8.50">
        <vehicle id="follower" x="624.70" y="748.69" angle="74.99" type="DEFAULT_VEHTYPE@follower" speed="11.76" pos="68.33" lane="E2_0" slope="0.00" acceleration="-0.28"/>
        <vehicle id="leader" x="660.33" y="758.24" angle="74.99" type="DEFAULT_VEHTYPE@leader" speed="12.07" pos="105.22" lane="E2_0" slope="0.00" acceleration="0.00"/>
    </timestep>
    <timestep time="8.60">
        <vehicle id="follower" x="625.83" y="749.00" angle="74.99" type="DEFAULT_VEHTYPE@follower" speed="11.75" pos="69.50" lane="E2_0" slope="0.00" acceleration="-0.13"/>
        <vehicle id="leader" x="661.49" y="758.56" angle="74.99" type="DEFAULT_VEHTYPE@leader" speed="12.07" pos="106.42" lane="E2_0" slope="0.00" acceleration="0.00"/>
    </timestep>
    <timestep time="8.70">
        <vehicle id="follower" x="626.97" y="749.30" angle="74.99" type="DEFAULT_VEHTYPE@follower" speed="11.81" pos="70.68" lane="E2_0" slope="0.00" acceleration="0.61"/>
        <vehicle id="leader" x="662.66" y="758.87" angle="74.99" type="DEFAULT_VEHTYPE@leader" speed="12.07" pos="107.63" lane="E2_0" slope="0.00" acceleration="0.00"/>
    </timestep>
    <timestep time="8.80">
        <vehicle id="follower" x="628.11" y="749.61" angle="74.99" type="DEFAULT_VEHTYPE@follower" speed="11.76" pos="71.86" lane="E2_0" slope="0.00" acceleration="-0.48"/>
        <vehicle id="leader" x="663.83" y="759.18" angle="74.99" type="DEFAULT_VEHTYPE@leader" speed="12.07" pos="108.84" lane="E2_0" slope="0.00" acceleration="0.00"/>
    </timestep>
    <timestep time="8.90">