<?xml version="1.0" encoding="UTF-8"?>

<!-- generated on 2023-04-04 14:18:11 by Eclipse SUMO sumo Version 1.16.0
<configuration xmlns:xsi="http://www.w3.org/2001/XMLSchema-instance" xsi:noNamespaceSchemaLocation="http://sumo.dlr.de/xsd/sumoConfiguration.xsd">

    <input>
        <net-file value="c:\Users\aryak\Projects\cf-sumo\sumo-xml\net.net.xml"/>
    </input>

    <output>
        <fcd-output value="c:\Users\aryak\Projects\cf-sumo\sumo-xml\output\554_fcd.xml"/>
        <fcd-output.acceleration value="true"/>
    </output>

    <time>
        <step-length value="0.1"/>
    </time>

    <report>
        <no-step-log value="true"/>
    </report>

    <traci_server>
        <remote-port value="49225"/>
    </traci_server>

</configuration>
-->

<fcd-export xmlns:xsi="http://www.w3.org/2001/XMLSchema-instance" xsi:noNamespaceSchemaLocation="http://sumo.dlr.de/xsd/fcd_file.xsd">
    <timestep time="0.00">
        <vehicle id="leader" x="563.63" y="732.32" angle="74.99" type="DEFAULT_VEHTYPE@leader" speed="10.35" pos="5.10" lane="E2_0" slope="0.00" acceleration="0.00"/>
    </timestep>
    <timestep time="0.10">
        <vehicle id="leader" x="564.65" y="732.59" angle="74.99" type="DEFAULT_VEHTYPE@leader" speed="10.55" pos="6.15" lane="E2_0" slope="0.00" acceleration="2.00"/>
    </timestep>
    <timestep time="0.20">
        <vehicle id="leader" x="565.67" y="732.87" angle="74.99" type="DEFAULT_VEHTYPE@leader" speed="10.63" pos="7.22" lane="E2_0" slope="0.00" acceleration="0.80"/>
    </timestep>
    <timestep time="0.30">
        <vehicle id="leader" x="566.69" y="733.14" angle="74.99" type="DEFAULT_VEHTYPE@leader" speed="10.53" pos="8.27" lane="E2_0" slope="0.00" acceleration="-1.00"/>
    </timestep>
    <timestep time="0.40">
        <vehicle id="leader" x="567.70" y="733.41" angle="74.99" type="DEFAULT_VEHTYPE@leader" speed="10.48" pos="9.32" lane="E2_0" slope="0.00" acceleration="-0.50"/>
    </timestep>
    <timestep time="0.50">
        <vehicle id="leader" x="568.73" y="733.69" angle="74.99" type="DEFAULT_VEHTYPE@leader" speed="10.66" pos="10.39" lane="E2_0" slope="0.00" acceleration="1.80"/>
    </timestep>
    <timestep time="0.60">
        <vehicle id="leader" x="569.77" y="733.97" angle="74.99" type="DEFAULT_VEHTYPE@leader" speed="10.78" pos="11.46" lane="E2_0" slope="0.00" acceleration="1.20"/>
    </timestep>
    <timestep time="0.70">
        <vehicle id="leader" x="570.81" y="734.25" angle="74.99" type="DEFAULT_VEHTYPE@leader" speed="10.78" pos="12.54" lane="E2_0" slope="0.00" acceleration="0.00"/>
    </timestep>
    <timestep time="0.80">
        <vehicle id="leader" x="571.85" y="734.53" angle="74.99" type="DEFAULT_VEHTYPE@leader" speed="10.78" pos="13.62" lane="E2_0" slope="0.00" acceleration="0.00"/>
    </timestep>
    <timestep time="0.90">
        <vehicle id="leader" x="572.90" y="734.81" angle="74.99" type="DEFAULT_VEHTYPE@leader" speed="10.82" pos="14.70" lane="E2_0" slope="0.00" acceleration="0.40"/>
    </timestep>
    <timestep time="1.00">
        <vehicle id="leader" x="573.94" y="735.09" angle="74.99" type="DEFAULT_VEHTYPE@leader" speed="10.82" pos="15.78" lane="E2_0" slope="0.00" acceleration="0.00"/>
    </timestep>
    <timestep time="1.10">
        <vehicle id="leader" x="574.99" y="735.37" angle="74.99" type="DEFAULT_VEHTYPE@leader" speed="10.82" pos="16.87" lane="E2_0" slope="0.00" acceleration="0.00"/>
    </timestep>
    <timestep time="1.20">
        <vehicle id="leader" x="576.03" y="735.65" angle="74.99" type="DEFAULT_VEHTYPE@leader" speed="10.82" pos="17.95" lane="E2_0" slope="0.00" acceleration="0.00"/>
    </timestep>
    <timestep time="1.30">
        <vehicle id="leader" x="577.10" y="735.93" angle="74.99" type="DEFAULT_VEHTYPE@leader" speed="11.06" pos="19.05" lane="E2_0" slope="0.00" acceleration="2.40"/>
    </timestep>
    <timestep time="1.40">
        <vehicle id="leader" x="578.18" y="736.22" angle="74.99" type="DEFAULT_VEHTYPE@leader" speed="11.16" pos="20.17" lane="E2_0" slope="0.00" acceleration="1.00"/>
    </timestep>
    <timestep time="1.50">
        <vehicle id="leader" x="579.26" y="736.51" angle="74.99" type="DEFAULT_VEHTYPE@leader" speed="11.19" pos="21.29" lane="E2_0" slope="0.00" acceleration="0.30"/>
    </timestep>
    <timestep time="1.60">
        <vehicle id="leader" x="580.35" y="736.80" angle="74.99" type="DEFAULT_VEHTYPE@leader" speed="11.27" pos="22.42" lane="E2_0" slope="0.00" acceleration="0.80"/>
    </timestep>
    <timestep time="1.70">
        <vehicle id="leader" x="581.44" y="737.10" angle="74.99" type="DEFAULT_VEHTYPE@leader" speed="11.27" pos="23.54" lane="E2_0" slope="0.00" acceleration="0.00"/>
    </timestep>
    <timestep time="1.80">
        <vehicle id="leader" x="582.53" y="737.39" angle="74.99" type="DEFAULT_VEHTYPE@leader" speed="11.27" pos="24.67" lane="E2_0" slope="0.00" acceleration="0.00"/>
    </timestep>
    <timestep time="1.90">
        <vehicle id="leader" x="583.63" y="737.68" angle="74.99" type="DEFAULT_VEHTYPE@leader" speed="11.46" pos="25.82" lane="E2_0" slope="0.00" acceleration="1.90"/>
    </timestep>
    <timestep time="2.00">
        <vehicle id="leader" x="584.75" y="737.98" angle="74.99" type="DEFAULT_VEHTYPE@leader" speed="11.51" pos="26.97" lane="E2_0" slope="0.00" acceleration="0.50"/>
    </timestep>
    <timestep time="2.10">
        <vehicle id="leader" x="585.87" y="738.28" angle="74.99" type="DEFAULT_VEHTYPE@leader" speed="11.63" pos="28.13" lane="E2_0" slope="0.00" acceleration="1.20"/>
    </timestep>
    <timestep time="2.20">
        <vehicle id="leader" x="587.01" y="738.59" angle="74.99" type="DEFAULT_VEHTYPE@leader" speed="11.76" pos="29.30" lane="E2_0" slope="0.00" acceleration="1.30"/>
    </timestep>
    <timestep time="2.30">
        <vehicle id="leader" x="588.15" y="738.89" angle="74.99" type="DEFAULT_VEHTYPE@leader" speed="11.82" pos="30.49" lane="E2_0" slope="0.00" acceleration="0.60"/>
    </timestep>
    <timestep time="2.40">
        <vehicle id="leader" x="589.29" y="739.20" angle="74.99" type="DEFAULT_VEHTYPE@leader" speed="11.82" pos="31.67" lane="E2_0" slope="0.00" acceleration="0.00"/>
    </timestep>
    <timestep time="2.50">
        <vehicle id="leader" x="590.43" y="739.51" angle="74.99" type="DEFAULT_VEHTYPE@leader" speed="11.84" pos="32.85" lane="E2_0" slope="0.00" acceleration="0.20"/>
    </timestep>
    <timestep time="2.60">
        <vehicle id="leader" x="591.60" y="739.82" angle="74.99" type="DEFAULT_VEHTYPE@leader" speed="12.04" pos="34.06" lane="E2_0" slope="0.00" acceleration="2.00"/>
    </timestep>
    <timestep time="2.70">
        <vehicle id="leader" x="592.76" y="740.13" angle="74.99" type="DEFAULT_VEHTYPE@leader" speed="12.04" pos="35.26" lane="E2_0" slope="0.00" acceleration="0.00"/>
    </timestep>
    <timestep time="2.80">
        <vehicle id="leader" x="593.94" y="740.45" angle="74.99" type="DEFAULT_VEHTYPE@leader" speed="12.19" pos="36.48" lane="E2_0" slope="0.00" acceleration="1.50"/>
    </timestep>
    <timestep time="2.90">
        <vehicle id="leader" x="595.13" y="740.77" angle="74.99" type="DEFAULT_VEHTYPE@leader" speed="12.37" pos="37.72" lane="E2_0" slope="0.00" acceleration="1.80"/>
    </timestep>
    <timestep time="3.00">
        <vehicle id="follower" x="563.63" y="732.32" angle="74.99" type="DEFAULT_VEHTYPE@follower" speed="10.35" pos="5.10" lane="E2_0" slope="0.00" acceleration="0.00"/>
        <vehicle id="leader" x="596.33" y="741.09" angle="74.99" type="DEFAULT_VEHTYPE@leader" speed="12.37" pos="38.95" lane="E2_0" slope="0.00" acceleration="0.00"/>
    </timestep>
    <timestep time="3.10">
        <vehicle id="follower" x="564.65" y="732.59" angle="74.99" type="DEFAULT_VEHTYPE@follower" speed="10.55" pos="6.16" lane="E2_0" slope="0.00" acceleration="2.04"/>
        <vehicle id="leader" x="597.52" y="741.41" angle="74.99" type="DEFAULT_VEHTYPE@leader" speed="12.37" pos="40.19" lane="E2_0" slope="0.00" acceleration="0.00"/>
    </timestep>
    <timestep time="3.20">
        <vehicle id="follower" x="565.69" y="732.87" angle="74.99" type="DEFAULT_VEHTYPE@follower" speed="10.77" pos="7.23" lane="E2_0" slope="0.00" acceleration="2.21"/>
        <vehicle id="leader" x="598.72" y="741.73" angle="74.99" type="DEFAULT_VEHTYPE@leader" speed="12.37" pos="41.43" lane="E2_0" slope="0.00" acceleration="0.00"/>
    </timestep>
    <timestep time="3.30">
        <vehicle id="follower" x="566.75" y="733.16" angle="74.99" type="DEFAULT_VEHTYPE@follower" speed="11.01" pos="8.33" lane="E2_0" slope="0.00" acceleration="2.36"/>
        <vehicle id="leader" x="599.91" y="742.05" angle="74.99" type="DEFAULT_VEHTYPE@leader" speed="12.37" pos="42.67" lane="E2_0" slope="0.00" acceleration="0.00"/>
    </timestep>
    <timestep time="3.40">
        <vehicle id="follower" x="567.83" y="733.45" angle="74.99" type="DEFAULT_VEHTYPE@follower" speed="11.21" pos="9.46" lane="E2_0" slope="0.00" acceleration="2.00"/>
        <vehicle id="leader" x="601.10" y="742.37" angle="74.99" type="DEFAULT_VEHTYPE@leader" speed="12.37" pos="43.90" lane="E2_0" slope="0.00" acceleration="0.00"/>
    </timestep>
    <timestep time="3.50">
        <vehicle id="follower" x="568.94" y="733.74" angle="74.99" type="DEFAULT_VEHTYPE@follower" speed="11.44" pos="10.60" lane="E2_0" slope="0.00" acceleration="2.25"/>
        <vehicle id="leader" x="602.31" y="742.69" angle="74.99" type="DEFAULT_VEHTYPE@leader" speed="12.45" pos="45.15" lane="E2_0" slope="0.00" acceleration="0.80"/>
    </timestep>
    <timestep time="3.60">
        <vehicle id="follower" x="570.05" y="734.04" angle="74.99" type="DEFAULT_VEHTYPE@follower" speed="11.47" pos="11.75" lane="E2_0" slope="0.00" acceleration="0.34"/>
        <vehicle id="leader" x="603.52" y="743.02" angle="74.99" type="DEFAULT_VEHTYPE@leader" speed="12.56" pos="46.40" lane="E2_0" slope="0.00" acceleration="1.10"/>
    </timestep>
    <timestep time="3.70">
        <vehicle id="follower" x="571.17" y="734.34" angle="74.99" type="DEFAULT_VEHTYPE@follower" speed="11.63" pos="12.91" lane="E2_0" slope="0.00" acceleration="1.56"/>
        <vehicle id="leader" x="604.75" y="743.34" angle="74.99" type="DEFAULT_VEHTYPE@leader" speed="12.68" pos="47.67" lane="E2_0" slope="0.00" acceleration="1.20"/>
    </timestep>
    <timestep time="3.80">
        <vehicle id="follower" x="572.29" y="734.64" angle="74.99" type="DEFAULT_VEHTYPE@follower" speed="11.66" pos="14.07" lane="E2_0" slope="0.00" acceleration="0.30"/>
        <vehicle id="leader" x="605.99" y="743.68" angle="74.99" type="DEFAULT_VEHTYPE@leader" speed="12.92" pos="48.96" lane="E2_0" slope="0.00" acceleration="2.40"/>
    </timestep>
    <timestep time="3.90">
        <vehicle id="follower" x="573.43" y="734.95" angle="74.99" type="DEFAULT_VEHTYPE@follower" speed="11.76" pos="15.25" lane="E2_0" slope="0.00" acceleration="1.00"/>
        <vehicle id="leader" x="607.24" y="744.01" angle="74.99" type="DEFAULT_VEHTYPE@leader" speed="12.93" pos="50.26" lane="E2_0" slope="0.00" acceleration="0.10"/>
    </timestep>
    <timestep time="4.00">
        <vehicle id="follower" x="574.57" y="735.25" angle="74.99" type="DEFAULT_VEHTYPE@follower" speed="11.80" pos="16.43" lane="E2_0" slope="0.00" acceleration="0.41"/>
        <vehicle id="leader" x="608.50" y="744.35" angle="74.99" type="DEFAULT_VEHTYPE@leader" speed="13.03" pos="51.56" lane="E2_0" slope="0.00" acceleration="1.00"/>
    </timestep>
    <timestep time="4.10">
        <vehicle id="follower" x="575.72" y="735.56" angle="74.99" type="DEFAULT_VEHTYPE@follower" speed="11.87" pos="17.62" lane="E2_0" slope="0.00" acceleration="0.74"/>
        <vehicle id="leader" x="609.77" y="744.69" angle="74.99" type="DEFAULT_VEHTYPE@leader" speed="13.11" pos="52.87" lane="E2_0" slope="0.00" acceleration="0.80"/>
    </timestep>
    <timestep time="4.20">
        <vehicle id="follower" x="576.86" y="735.87" angle="74.99" type="DEFAULT_VEHTYPE@follower" speed="11.89" pos="18.81" lane="E2_0" slope="0.00" acceleration="0.16"/>
        <vehicle id="leader" x="611.06" y="745.04" angle="74.99" type="DEFAULT_VEHTYPE@leader" speed="13.35" pos="54.21" lane="E2_0" slope="0.00" acceleration="2.40"/>
    </timestep>
    <timestep time="4.30">
        <vehicle id="follower" x="578.03" y="736.18" angle="74.99" type="DEFAULT_VEHTYPE@follower" speed="12.09" pos="20.01" lane="E2_0" slope="0.00" acceleration="2.03"/>
        <vehicle id="leader" x="612.36" y="745.39" angle="74.99" type="DEFAULT_VEHTYPE@leader" speed="13.53" pos="55.56" lane="E2_0" slope="0.00" acceleration="1.80"/>
    </timestep>
    <timestep time="4.40">
        <vehicle id="follower" x="579.21" y="736.50" angle="74.99" type="DEFAULT_VEHTYPE@follower" speed="12.17" pos="21.23" lane="E2_0" slope="0.00" acceleration="0.79"/>
        <vehicle id="leader" x="613.69" y="745.74" angle="74.99" type="DEFAULT_VEHTYPE@leader" speed="13.77" pos="56.94" lane="E2_0" slope="0.00" acceleration="2.40"/>
    </timestep>
    <timestep time="4.50">
        <vehicle id="follower" x="580.39" y="736.82" angle="74.99" type="DEFAULT_VEHTYPE@follower" speed="12.26" pos="22.46" lane="E2_0" slope="0.00" acceleration="0.93"/>
        <vehicle id="leader" x="615.05" y="746.11" angle="74.99" type="DEFAULT_VEHTYPE@leader" speed="14.01" pos="58.34" lane="E2_0" slope="0.00" acceleration="2.40"/>
    </timestep>
    <timestep time="4.60">
        <vehicle id="follower" x="581.59" y="737.14" angle="74.99" type="DEFAULT_VEHTYPE@follower" speed="12.43" pos="23.70" lane="E2_0" slope="0.00" acceleration="1.63"/>
        <vehicle id="leader" x="616.42" y="746.47" angle="74.99" type="DEFAULT_VEHTYPE@leader" speed="14.25" pos="59.76" lane="E2_0" slope="0.00" acceleration="2.40"/>
    </timestep>
    <timestep time="4.70">
        <vehicle id="follower" x="582.81" y="737.46" angle="74.99" type="DEFAULT_VEHTYPE@follower" speed="12.66" pos="24.97" lane="E2_0" slope="0.00" acceleration="2.31"/>
        <vehicle id="leader" x="617.82" y="746.85" angle="74.99" type="DEFAULT_VEHTYPE@leader" speed="14.42" pos="61.20" lane="E2_0" slope="0.00" acceleration="1.70"/>
    </timestep>
    <timestep time="4.80">
        <vehicle id="follower" x="584.04" y="737.79" angle="74.99" type="DEFAULT_VEHTYPE@follower" speed="12.70" pos="26.24" lane="E2_0" slope="0.00" acceleration="0.46"/>
        <vehicle id="leader" x="619.22" y="747.23" angle="74.99" type="DEFAULT_VEHTYPE@leader" speed="14.58" pos="62.66" lane="E2_0" slope="0.00" acceleration="1.60"/>
    </timestep>
    <timestep time="4.90">
        <vehicle id="follower" x="585.28" y="738.13" angle="74.99" type="DEFAULT_VEHTYPE@follower" speed="12.87" pos="27.52" lane="E2_0" slope="0.00" acceleration="1.64"/>
        <vehicle id="leader" x="620.64" y="747.60" angle="74.99" type="DEFAULT_VEHTYPE@leader" speed="14.63" pos="64.12" lane="E2_0" slope="0.00" acceleration="0.50"/>
    </timestep>
    <timestep time="5.00">
        <vehicle id="follower" x="586.52" y="738.46" angle="74.99" type="DEFAULT_VEHTYPE@follower" speed="12.81" pos="28.80" lane="E2_0" slope="0.00" acceleration="-0.60"/>
        <vehicle id="leader" x="622.06" y="747.99" angle="74.99" type="DEFAULT_VEHTYPE@leader" speed="14.73" pos="65.60" lane="E2_0" slope="0.00" acceleration="1.00"/>
    </timestep>
    <timestep time="5.10">
        <vehicle id="follower" x="587.77" y="738.79" angle="74.99" type="DEFAULT_VEHTYPE@follower" speed="12.96" pos="30.10" lane="E2_0" slope="0.00" acceleration="1.56"/>
        <vehicle id="leader" x="623.48" y="748.37" angle="74.99" type="DEFAULT_VEHTYPE@leader" speed="14.73" pos="67.07" lane="E2_0" slope="0.00" acceleration="0.00"/>
    </timestep>
    <timestep time="5.20">
        <vehicle id="follower" x="589.02" y="739.13" angle="74.99" type="DEFAULT_VEHTYPE@follower" speed="12.96" pos="31.40" lane="E2_0" slope="0.00" acceleration="-0.01"/>
        <vehicle id="leader" x="624.91" y="748.75" angle="74.99" type="DEFAULT_VEHTYPE@leader" speed="14.81" pos="68.55" lane="E2_0" slope="0.00" acceleration="0.80"/>
    </timestep>
    <timestep time="5.30">
        <vehicle id="follower" x="590.29" y="739.47" angle="74.99" type="DEFAULT_VEHTYPE@follower" speed="13.07" pos="32.70" lane="E2_0" slope="0.00" acceleration="1.12"/>
        <vehicle id="leader" x="626.35" y="749.14" angle="74.99" type="DEFAULT_VEHTYPE@leader" speed="14.88" pos="70.04" lane="E2_0" slope="0.00" acceleration="0.70"/>
    </timestep>
    <timestep time="5.40">
        <vehicle id="follower" x="591.56" y="739.81" angle="74.99" type="DEFAULT_VEHTYPE@follower" speed="13.15" pos="34.02" lane="E2_0" slope="0.00" acceleration="0.73"/>
        <vehicle id="leader" x="627.80" y="749.52" angle="74.99" type="DEFAULT_VEHTYPE@leader" speed="15.02" pos="71.54" lane="E2_0" slope="0.00" acceleration="1.40"/>
    </timestep>
    <timestep time="5.50">
        <vehicle id="follower" x="592.83" y="740.15" angle="74.99" type="DEFAULT_VEHTYPE@follower" speed="13.21" pos="35.34" lane="E2_0" slope="0.00" acceleration="0.64"/>
        <vehicle id="leader" x="629.25" y="749.91" angle="74.99" type="DEFAULT_VEHTYPE@leader" speed="14.99" pos="73.04" lane="E2_0" slope="0.00" acceleration="-0.30"/>
    </timestep>
    <timestep time="5.60">
        <vehicle id="follower" x="594.11" y="740.49" angle="74.99" type="DEFAULT_VEHTYPE@follower" speed="13.24" pos="36.66" lane="E2_0" slope="0.00" acceleration="0.28"/>
        <vehicle id="leader" x="630.70" y="750.30" angle="74.99" type="DEFAULT_VEHTYPE@leader" speed="15.06" pos="74.55" lane="E2_0" slope="0.00" acceleration="0.70"/>
    </timestep>
    <timestep time="5.70">
        <vehicle id="follower" x="595.39" y="740.84" angle="74.99" type="DEFAULT_VEHTYPE@follower" speed="13.27" pos="37.99" lane="E2_0" slope="0.00" acceleration="0.35"/>
        <vehicle id="leader" x="632.17" y="750.70" angle="74.99" type="DEFAULT_VEHTYPE@leader" speed="15.22" pos="76.07" lane="E2_0" slope="0.00" acceleration="1.60"/>
    </timestep>
    <timestep time="5.80">
        <vehicle id="follower" x="596.69" y="741.18" angle="74.99" type="DEFAULT_VEHTYPE@follower" speed="13.38" pos="39.33" lane="E2_0" slope="0.00" acceleration="1.10"/>
        <vehicle id="leader" x="633.64" y="751.09" angle="74.99" type="DEFAULT_VEHTYPE@leader" speed="15.16" pos="77.58" lane="E2_0" slope="0.00" acceleration="-0.60"/>
    </timestep>
    <timestep time="5.90">
        <vehicle id="follower" x="597.97" y="741.53" angle="74.99" type="DEFAULT_VEHTYPE@follower" speed="13.33" pos="40.66" lane="E2_0" slope="0.00" acceleration="-0.55"/>
        <vehicle id="leader" x="635.10" y="751.48" angle="74.99" type="DEFAULT_VEHTYPE@leader" speed="15.16" pos="79.10" lane="E2_0" slope="0.00" acceleration="0.00"/>
    </timestep>
    <timestep time="6.00">
        <vehicle id="follower" x="599.27" y="741.88" angle="74.99" type="DEFAULT_VEHTYPE@follower" speed="13.41" pos="42.00" lane="E2_0" slope="0.00" acceleration="0.76"/>
        <vehicle id="leader" x="636.56" y="751.87" angle="74.99" type="DEFAULT_VEHTYPE@leader" speed="15.06" pos="80.61" lane="E2_0" slope="0.00" acceleration="-1.00"/>
    </timestep>
    <timestep time="6.10">
        <vehicle id="follower" x="600.56" y="742.22" angle="74.99" type="DEFAULT_VEHTYPE@follower" speed="13.31" pos="43.33" lane="E2_0" slope="0.00" acceleration="-0.91"/>
        <vehicle id="leader" x="638.02" y="752.26" angle="74.99" type="DEFAULT_VEHTYPE@leader" speed="15.12" pos="82.12" lane="E2_0" slope="0.00" acceleration="0.60"/>
    </timestep>
    <timestep time="6.20">
        <vehicle id="follower" x="601.85" y="742.57" angle="74.99" type="DEFAULT_VEHTYPE@follower" speed="13.45" pos="44.68" lane="E2_0" slope="0.00" acceleration="1.37"/>
        <vehicle id="leader" x="639.48" y="752.66" angle="74.99" type="DEFAULT_VEHTYPE@leader" speed="15.16" pos="83.63" lane="E2_0" slope="0.00" acceleration="0.40"/>
    </timestep>
    <timestep time="6.30">
        <vehicle id="follower" x="603.15" y="742.92" angle="74.99" type="DEFAULT_VEHTYPE@follower" speed="13.43" pos="46.02" lane="E2_0" slope="0.00" acceleration="-0.25"/>
        <vehicle id="leader" x="640.97" y="753.05" angle="74.99" type="DEFAULT_VEHTYPE@leader" speed="15.40" pos="85.17" lane="E2_0" slope="0.00" acceleration="2.40"/>
    </timestep>
    <timestep time="6.40">
        <vehicle id="follower" x="604.46" y="743.27" angle="74.99" type="DEFAULT_VEHTYPE@follower" speed="13.55" pos="47.38" lane="E2_0" slope="0.00" acceleration="1.29"/>
        <vehicle id="leader" x="642.48" y="753.46" angle="74.99" type="DEFAULT_VEHTYPE@leader" speed="15.63" pos="86.74" lane="E2_0" slope="0.00" acceleration="2.30"/>
    </timestep>
    <timestep time="6.50">
        <vehicle id="follower" x="605.79" y="743.62" angle="74.99" type="DEFAULT_VEHTYPE@follower" speed="13.74" pos="48.75" lane="E2_0" slope="0.00" acceleration="1.89"/>
        <vehicle id="leader" x="644.00" y="753.87" angle="74.99" type="DEFAULT_VEHTYPE@leader" speed="15.74" pos="88.31" lane="E2_0" slope="0.00" acceleration="1.10"/>
    </timestep>
    <timestep time="6.60">
        <vehicle id="follower" x="607.13" y="743.98" angle="74.99" type="DEFAULT_VEHTYPE@follower" speed="13.85" pos="50.14" lane="E2_0" slope="0.00" acceleration="1.02"/>
        <vehicle id="leader" x="645.52" y="754.28" angle="74.99" type="DEFAULT_VEHTYPE@leader" speed="15.76" pos="89.89" lane="E2_0" slope="0.00" acceleration="0.20"/>
    </timestep>
    <timestep time="6.70">
        <vehicle id="follower" x="608.46" y="744.34" angle="74.99" type="DEFAULT_VEHTYPE@follower" speed="13.87" pos="51.52" lane="E2_0" slope="0.00" acceleration="0.23"/>
        <vehicle id="leader" x="647.05" y="754.69" angle="74.99" type="DEFAULT_VEHTYPE@leader" speed="15.87" pos="91.47" lane="E2_0" slope="0.00" acceleration="1.10"/>
    </timestep>
    <timestep time="6.80">
        <vehicle id="follower" x="609.82" y="744.70" angle="74.99" type="DEFAULT_VEHTYPE@follower" speed="13.99" pos="52.92" lane="E2_0" slope="0.00" acceleration="1.17"/>
        <vehicle id="leader" x="648.59" y="755.10" angle="74.99" type="DEFAULT_VEHTYPE@leader" speed="15.90" pos="93.06" lane="E2_0" slope="0.00" acceleration="0.30"/>
    </timestep>
    <timestep time="6.90">
        <vehicle id="follower" x="611.17" y="745.07" angle="74.99" type="DEFAULT_VEHTYPE@follower" speed="14.02" pos="54.32" lane="E2_0" slope="0.00" acceleration="0.36"/>
        <vehicle id="leader" x="650.15" y="755.51" angle="74.99" type="DEFAULT_VEHTYPE@leader" speed="16.11" pos="94.68" lane="E2_0" slope="0.00" acceleration="2.10"/>
    </timestep>
    <timestep time="7.00">
        <vehicle id="follower" x="612.54" y="745.43" angle="74.99" type="DEFAULT_VEHTYPE@follower" speed="14.18" pos="55.74" lane="E2_0" slope="0.00" acceleration="1.62"/>
        <vehicle id="leader" x="651.70" y="755.93" angle="74.99" type="DEFAULT_VEHTYPE@leader" speed="16.07" pos="96.28" lane="E2_0" slope="0.00" acceleration="-0.40"/>
    </timestep>
    <timestep time="7.10">
        <vehicle id="follower" x="613.90" y="745.80" angle="74.99" type="DEFAULT_VEHTYPE@follower" speed="14.12" pos="57.15" lane="E2_0" slope="0.00" acceleration="-0.60"/>
        <vehicle id="leader" x="653.25" y="756.35" angle="74.99" type="DEFAULT_VEHTYPE@leader" speed="16.07" pos="97.89" lane="E2_0" slope="0.00" acceleration="0.00"/>
    </timestep>
    <timestep time="7.20">
        <vehicle id="follower" x="615.28" y="746.17" angle="74.99" type="DEFAULT_VEHTYPE@follower" speed="14.20" pos="58.57" lane="E2_0" slope="0.00" acceleration="0.73"/>
        <vehicle id="leader" x="654.80" y="756.76" angle="74.99" type="DEFAULT_VEHTYPE@leader" speed="16.07" pos="99.50" lane="E2_0" slope="0.00" acceleration="0.00"/>
    </timestep>
    <timestep time="7.30">
        <vehicle id="follower" x="616.65" y="746.54" angle="74.99" type="DEFAULT_VEHTYPE@follower" speed="14.24" pos="60.00" lane="E2_0" slope="0.00" acceleration="0.45"/>
        <vehicle id="leader" x="656.35" y="757.18" angle="74.99" type="DEFAULT_VEHTYPE@leader" speed="16.07" pos="101.10" lane="E2_0" slope="0.00" acceleration="0.00"/>
    </timestep>
    <timestep time="7.40">
        <vehicle id="follower" x="618.03" y="746.90" angle="74.99" type="DEFAULT_VEHTYPE@follower" speed="14.26" pos="61.42" lane="E2_0" slope="0.00" acceleration="0.23"/>
        <vehicle id="leader" x="657.91" y="757.60" angle="74.99" type="DEFAULT_VEHTYPE@leader" speed="16.07" pos="102.71" lane="E2_0" slope="0.00" acceleration="0.00"/>
    </timestep>
    <timestep time="7.50">
        <vehicle id="follower" x="619.41" y="747.27" angle="74.99" type="DEFAULT_VEHTYPE@follower" speed="14.26" pos="62.85" lane="E2_0" slope="0.00" acceleration="-0.03"/>
        <vehicle id="leader" x="659.46" y="758.01" angle="74.99" type="DEFAULT_VEHTYPE@leader" speed="16.07" pos="104.32" lane="E2_0" slope="0.00" acceleration="0.00"/>
    </timestep>
    <timestep time="7.60">
        <vehicle id="follower" x="620.79" y="747.64" angle="74.99" type="DEFAULT_VEHTYPE@follower" speed="14.33" pos="64.28" lane="E2_0" slope="0.00" acceleration="0.65"/>
        <vehicle id="leader" x="661.01" y="758.43" angle="74.99" type="DEFAULT_VEHTYPE@leader" speed="16.01" pos="105.92" lane="E2_0" slope="0.00" acceleration="-0.60"/>
    </timestep>
    <timestep time="7.70">
        <vehicle id="follower" x="622.17" y="748.01" angle="74.99" type="DEFAULT_VEHTYPE@follower" speed="14.24" pos="65.71" lane="E2_0" slope="0.00" acceleration="-0.82"/>
        <vehicle id="leader" x="662.55" y="758.84" angle="74.99" type="DEFAULT_VEHTYPE@leader" speed="16.04" pos="107.52" lane="E2_0" slope="0.00" acceleration="0.30"/>
    </timestep>
    <timestep time="7.80">
        <vehicle id="follower" x="623.54" y="748.38" angle="74.99" type="DEFAULT_VEHTYPE@follower" speed="14.26" pos="67.13" lane="E2_0" slope="0.00" acceleration="0.19"/>
        <vehicle id="leader" x="664.12" y="759.26" angle="74.99" type="DEFAULT_VEHTYPE@leader" speed="16.16" pos="109.14" lane="E2_0" slope="0.00" acceleration="1.20"/>
    </timestep>
    <timestep time="7.90">
        <vehicle id="follower" x="624.93" y="748.75" angle="74.99" type="DEFAULT_VEHTYPE@follower" speed="14.34" pos="68.57" lane="E2_0" slope="0.00" acceleration="0.78"/>
        <vehicle id="leader" x="665.68" y="759.68" angle="74.99" type="DEFAULT_VEHTYPE@leader" speed="16.18" pos="110.76" lane="E2_0" slope="0.00" acceleration="0.20"/>
    </timestep>
    <timestep time="8.00">
        <vehicle id="follower" x="626.32" y="749.13" angle="74.99" type="DEFAULT_VEHTYPE@follower" speed="14.41" pos="70.01" lane="E2_0" slope="0.00" acceleration="0.64"/>
        <vehicle id="leader" x="667.24" y="760.10" angle="74.99" type="DEFAULT_VEHTYPE@leader" speed="16.15" pos="112.37" lane="E2_0" slope="0.00" acceleration="-0.30"/>
    </timestep>
    <timestep time="8.10">
        <vehicle id="follower" x="627.71" y="749.50" angle="74.99" type="DEFAULT_VEHTYPE@follower" speed="14.42" pos="71.45" lane="E2_0" slope="0.00" acceleration="0.19"/>
        <vehicle id="leader" x="668.81" y="760.52" angle="74.99" type="DEFAULT_VEHTYPE@leader" speed="16.22" pos="113.99" lane="E2_0" slope="0.00" acceleration="0.70"/>
    </timestep>
    <timestep time="8.20">
        <vehicle id="follower" x="629.11" y="749.88" angle="74.99" type="DEFAULT_VEHTYPE@follower" speed="14.51" pos="72.90" lane="E2_0" slope="0.00" acceleration="0.84"/>
        <vehicle id="leader" x="670.38" y="760.94" angle="74.99" type="DEFAULT_VEHTYPE@leader" speed="16.32" pos="115.63" lane="E2_0" slope="0.00" acceleration="1.00"/>
    </timestep>
    <timestep time="8.30">
        <vehicle id="follower" x="630.52" y="750.25" angle="74.99" type="DEFAULT_VEHTYPE@follower" speed="14.56" pos="74.36" lane="E2_0" slope="0.00" acceleration="0.49"/>
        <vehicle id="leader" x="671.96" y="761.36" angle="74.99" type="DEFAULT_VEHTYPE@leader" speed="16.31" pos="117.26" lane="E2_0" slope="0.00" acceleration="-0.10"/>
    </timestep>
    <timestep time="8.40">
        <vehicle id="follower" x="631.93" y="750.63" angle="74.99" type="DEFAULT_VEHTYPE@follower" speed="14.63" pos="75.82" lane="E2_0" slope="0.00" acceleration="0.78"/>
        <vehicle id="leader" x="673.53" y="761.78" angle="74.99" type="DEFAULT_VEHTYPE@leader" speed="16.27" pos="118.88" lane="E2_0" slope="0.00" acceleration="-0.40"/>
    </timestep>
    <timestep time="8.50">
        <vehicle id="follower" x="633.34" y="751.01" angle="74.99" type="DEFAULT_VEHTYPE@follower" speed="14.57" pos="77.28" lane="E2_0" slope="0.00" acceleration="-0.62"/>
        <vehicle id="leader" x="675.10" y="762.21" angle="74.99" type="DEFAULT_VEHTYPE@leader" speed="16.30" pos="120.51" lane="E2_0" slope="0.00" acceleration="0.30"/>
    </timestep>
    <timestep time="8.60">
        <vehicle id="follower" x="634.75" y="751.39" angle="74.99" type="DEFAULT_VEHTYPE@follower" speed="14.57" pos="78.73" lane="E2_0" slope="0.00" acceleration="0.02"/>
        <vehicle id="leader" x="676.69" y="762.63" angle="74.99" type="DEFAULT_VEHTYPE@leader" speed="16.40" pos="122.15" lane="E2_0" slope="0.00" acceleration="1.00"/>
    </timestep>
    <timestep time="8.70">
        <vehicle id="follower" x="636.17" y="751.77" angle="74.99" type="DEFAULT_VEHTYPE@follower" speed="14.76" pos="80.21" lane="E2_0" slope="0.00" acceleration="1.86"/>
        <vehicle id="leader" x="678.28" y="763.06" angle="74.99" type="DEFAULT_VEHTYPE@leader" speed="16.54" pos="123.81" lane="E2_0" slope="0.00" acceleration="1.40"/>
    </timestep>
    <timestep time="8.80">
        <vehicle id="follower" x="637.60" y="752.15" angle="74.99" type="DEFAULT_VEHTYPE@follower" speed="14.75" pos="81.69" lane="E2_0" slope="0.00" acceleration="-0.13"/>
        <vehicle id="leader" x="679.89" y="763.49" angle="74.99" type="DEFAULT_VEHTYPE@leader" speed="16.60" pos="125.47" lane="E2_0" slope="0.00" acceleration="0.60"/>
    </timestep>
    <timestep time="8.90">