<?xml version="1.0" encoding="UTF-8"?>

<!-- generated on 2023-04-09 14:25:02 by Eclipse SUMO sumo Version 1.16.0
<configuration xmlns:xsi="http://www.w3.org/2001/XMLSchema-instance" xsi:noNamespaceSchemaLocation="http://sumo.dlr.de/xsd/sumoConfiguration.xsd">

    <input>
        <net-file value="c:\Users\aryak\Projects\cf-sumo\sumo-xml\net.net.xml"/>
    </input>

    <output>
        <fcd-output value="c:\Users\aryak\Projects\cf-sumo\sumo-xml\output\590_fcd.xml"/>
        <fcd-output.acceleration value="true"/>
    </output>

    <time>
        <step-length value="0.1"/>
    </time>

    <report>
        <no-step-log value="true"/>
    </report>

    <traci_server>
        <remote-port value="57788"/>
    </traci_server>

</configuration>
-->

<fcd-export xmlns:xsi="http://www.w3.org/2001/XMLSchema-instance" xsi:noNamespaceSchemaLocation="http://sumo.dlr.de/xsd/fcd_file.xsd">
    <timestep time="0.00">
        <vehicle id="leader" x="563.63" y="732.32" angle="74.99" type="DEFAULT_VEHTYPE@leader" speed="10.35" pos="5.10" lane="E2_0" slope="0.00" acceleration="0.00"/>
    </timestep>
    <timestep time="0.10">
        <vehicle id="leader" x="564.65" y="732.59" angle="74.99" type="DEFAULT_VEHTYPE@leader" speed="10.55" pos="6.15" lane="E2_0" slope="0.00" acceleration="2.00"/>
    </timestep>
    <timestep time="0.20">
        <vehicle id="leader" x="565.67" y="732.87" angle="74.99" type="DEFAULT_VEHTYPE@leader" speed="10.63" pos="7.22" lane="E2_0" slope="0.00" acceleration="0.80"/>
    </timestep>
    <timestep time="0.30">
        <vehicle id="leader" x="566.69" y="733.14" angle="74.99" type="DEFAULT_VEHTYPE@leader" speed="10.53" pos="8.27" lane="E2_0" slope="0.00" acceleration="-1.00"/>
    </timestep>
    <timestep time="0.40">
        <vehicle id="leader" x="567.70" y="733.41" angle="74.99" type="DEFAULT_VEHTYPE@leader" speed="10.48" pos="9.32" lane="E2_0" slope="0.00" acceleration="-0.50"/>
    </timestep>
    <timestep time="0.50">
        <vehicle id="leader" x="568.73" y="733.69" angle="74.99" type="DEFAULT_VEHTYPE@leader" speed="10.66" pos="10.39" lane="E2_0" slope="0.00" acceleration="1.80"/>
    </timestep>
    <timestep time="0.60">
        <vehicle id="leader" x="569.77" y="733.97" angle="74.99" type="DEFAULT_VEHTYPE@leader" speed="10.78" pos="11.46" lane="E2_0" slope="0.00" acceleration="1.20"/>
    </timestep>
    <timestep time="0.70">
        <vehicle id="leader" x="570.81" y="734.25" angle="74.99" type="DEFAULT_VEHTYPE@leader" speed="10.78" pos="12.54" lane="E2_0" slope="0.00" acceleration="0.00"/>
    </timestep>
    <timestep time="0.80">
        <vehicle id="leader" x="571.85" y="734.53" angle="74.99" type="DEFAULT_VEHTYPE@leader" speed="10.78" pos="13.62" lane="E2_0" slope="0.00" acceleration="0.00"/>
    </timestep>
    <timestep time="0.90">
        <vehicle id="leader" x="572.90" y="734.81" angle="74.99" type="DEFAULT_VEHTYPE@leader" speed="10.82" pos="14.70" lane="E2_0" slope="0.00" acceleration="0.40"/>
    </timestep>
    <timestep time="1.00">
        <vehicle id="leader" x="573.94" y="735.09" angle="74.99" type="DEFAULT_VEHTYPE@leader" speed="10.82" pos="15.78" lane="E2_0" slope="0.00" acceleration="0.00"/>
    </timestep>
    <timestep time="1.10">
        <vehicle id="leader" x="574.99" y="735.37" angle="74.99" type="DEFAULT_VEHTYPE@leader" speed="10.82" pos="16.87" lane="E2_0" slope="0.00" acceleration="0.00"/>
    </timestep>
    <timestep time="1.20">
        <vehicle id="leader" x="576.03" y="735.65" angle="74.99" type="DEFAULT_VEHTYPE@leader" speed="10.82" pos="17.95" lane="E2_0" slope="0.00" acceleration="0.00"/>
    </timestep>
    <timestep time="1.30">
        <vehicle id="leader" x="577.10" y="735.93" angle="74.99" type="DEFAULT_VEHTYPE@leader" speed="11.07" pos="19.05" lane="E2_0" slope="0.00" acceleration="2.50"/>
    </timestep>
    <timestep time="1.40">
        <vehicle id="leader" x="578.18" y="736.22" angle="74.99" type="DEFAULT_VEHTYPE@leader" speed="11.16" pos="20.17" lane="E2_0" slope="0.00" acceleration="0.90"/>
    </timestep>
    <timestep time="1.50">
        <vehicle id="leader" x="579.26" y="736.51" angle="74.99" type="DEFAULT_VEHTYPE@leader" speed="11.19" pos="21.29" lane="E2_0" slope="0.00" acceleration="0.30"/>
    </timestep>
    <timestep time="1.60">
        <vehicle id="leader" x="580.35" y="736.80" angle="74.99" type="DEFAULT_VEHTYPE@leader" speed="11.27" pos="22.42" lane="E2_0" slope="0.00" acceleration="0.80"/>
    </timestep>
    <timestep time="1.70">
        <vehicle id="leader" x="581.44" y="737.10" angle="74.99" type="DEFAULT_VEHTYPE@leader" speed="11.27" pos="23.54" lane="E2_0" slope="0.00" acceleration="0.00"/>
    </timestep>
    <timestep time="1.80">
        <vehicle id="leader" x="582.53" y="737.39" angle="74.99" type="DEFAULT_VEHTYPE@leader" speed="11.27" pos="24.67" lane="E2_0" slope="0.00" acceleration="0.00"/>
    </timestep>
    <timestep time="1.90">
        <vehicle id="leader" x="583.64" y="737.68" angle="74.99" type="DEFAULT_VEHTYPE@leader" speed="11.46" pos="25.82" lane="E2_0" slope="0.00" acceleration="1.90"/>
    </timestep>
    <timestep time="2.00">
        <vehicle id="leader" x="584.75" y="737.98" angle="74.99" type="DEFAULT_VEHTYPE@leader" speed="11.51" pos="26.97" lane="E2_0" slope="0.00" acceleration="0.50"/>
    </timestep>
    <timestep time="2.10">
        <vehicle id="leader" x="585.87" y="738.28" angle="74.99" type="DEFAULT_VEHTYPE@leader" speed="11.63" pos="28.13" lane="E2_0" slope="0.00" acceleration="1.20"/>
    </timestep>
    <timestep time="2.20">
        <vehicle id="leader" x="587.01" y="738.59" angle="74.99" type="DEFAULT_VEHTYPE@leader" speed="11.76" pos="29.31" lane="E2_0" slope="0.00" acceleration="1.30"/>
    </timestep>
    <timestep time="2.30">
        <vehicle id="leader" x="588.15" y="738.89" angle="74.99" type="DEFAULT_VEHTYPE@leader" speed="11.82" pos="30.49" lane="E2_0" slope="0.00" acceleration="0.60"/>
    </timestep>
    <timestep time="2.40">
        <vehicle id="leader" x="589.29" y="739.20" angle="74.99" type="DEFAULT_VEHTYPE@leader" speed="11.82" pos="31.67" lane="E2_0" slope="0.00" acceleration="0.00"/>
    </timestep>
    <timestep time="2.50">
        <vehicle id="leader" x="590.43" y="739.51" angle="74.99" type="DEFAULT_VEHTYPE@leader" speed="11.84" pos="32.85" lane="E2_0" slope="0.00" acceleration="0.20"/>
    </timestep>
    <timestep time="2.60">
        <vehicle id="leader" x="591.60" y="739.82" angle="74.99" type="DEFAULT_VEHTYPE@leader" speed="12.04" pos="34.06" lane="E2_0" slope="0.00" acceleration="2.00"/>
    </timestep>
    <timestep time="2.70">
        <vehicle id="leader" x="592.76" y="740.13" angle="74.99" type="DEFAULT_VEHTYPE@leader" speed="12.04" pos="35.26" lane="E2_0" slope="0.00" acceleration="0.00"/>
    </timestep>
    <timestep time="2.80">
        <vehicle id="leader" x="593.94" y="740.45" angle="74.99" type="DEFAULT_VEHTYPE@leader" speed="12.19" pos="36.48" lane="E2_0" slope="0.00" acceleration="1.50"/>
    </timestep>
    <timestep time="2.90">
        <vehicle id="leader" x="595.13" y="740.77" angle="74.99" type="DEFAULT_VEHTYPE@leader" speed="12.37" pos="37.72" lane="E2_0" slope="0.00" acceleration="1.80"/>
    </timestep>
    <timestep time="3.00">
        <vehicle id="follower" x="563.63" y="732.32" angle="74.99" type="DEFAULT_VEHTYPE@follower" speed="10.35" pos="5.10" lane="E2_0" slope="0.00" acceleration="0.00"/>
        <vehicle id="leader" x="596.33" y="741.09" angle="74.99" type="DEFAULT_VEHTYPE@leader" speed="12.37" pos="38.95" lane="E2_0" slope="0.00" acceleration="0.00"/>
    </timestep>
    <timestep time="3.10">
        <vehicle id="follower" x="564.65" y="732.59" angle="74.99" type="DEFAULT_VEHTYPE@follower" speed="10.58" pos="6.16" lane="E2_0" slope="0.00" acceleration="2.25"/>
        <vehicle id="leader" x="597.52" y="741.41" angle="74.99" type="DEFAULT_VEHTYPE@leader" speed="12.37" pos="40.19" lane="E2_0" slope="0.00" acceleration="0.00"/>
    </timestep>
    <timestep time="3.20">
        <vehicle id="follower" x="565.69" y="732.87" angle="74.99" type="DEFAULT_VEHTYPE@follower" speed="10.82" pos="7.24" lane="E2_0" slope="0.00" acceleration="2.44"/>
        <vehicle id="leader" x="598.72" y="741.73" angle="74.99" type="DEFAULT_VEHTYPE@leader" speed="12.37" pos="41.43" lane="E2_0" slope="0.00" acceleration="0.00"/>
    </timestep>
    <timestep time="3.30">
        <vehicle id="follower" x="566.76" y="733.16" angle="74.99" type="DEFAULT_VEHTYPE@follower" speed="11.08" pos="8.35" lane="E2_0" slope="0.00" acceleration="2.61"/>
        <vehicle id="leader" x="599.91" y="742.05" angle="74.99" type="DEFAULT_VEHTYPE@leader" speed="12.37" pos="42.67" lane="E2_0" slope="0.00" acceleration="0.00"/>
    </timestep>
    <timestep time="3.40">
        <vehicle id="follower" x="567.85" y="733.45" angle="74.99" type="DEFAULT_VEHTYPE@follower" speed="11.30" pos="9.48" lane="E2_0" slope="0.00" acceleration="2.21"/>
        <vehicle id="leader" x="601.11" y="742.37" angle="74.99" type="DEFAULT_VEHTYPE@leader" speed="12.37" pos="43.90" lane="E2_0" slope="0.00" acceleration="0.00"/>
    </timestep>
    <timestep time="3.50">
        <vehicle id="follower" x="568.97" y="733.75" angle="74.99" type="DEFAULT_VEHTYPE@follower" speed="11.55" pos="10.63" lane="E2_0" slope="0.00" acceleration="2.49"/>
        <vehicle id="leader" x="602.31" y="742.69" angle="74.99" type="DEFAULT_VEHTYPE@leader" speed="12.45" pos="45.15" lane="E2_0" slope="0.00" acceleration="0.80"/>
    </timestep>
    <timestep time="3.60">
        <vehicle id="follower" x="570.10" y="734.06" angle="74.99" type="DEFAULT_VEHTYPE@follower" speed="11.69" pos="11.80" lane="E2_0" slope="0.00" acceleration="1.37"/>
        <vehicle id="leader" x="603.52" y="743.02" angle="74.99" type="DEFAULT_VEHTYPE@leader" speed="12.56" pos="46.40" lane="E2_0" slope="0.00" acceleration="1.10"/>
    </timestep>
    <timestep time="3.70">
        <vehicle id="follower" x="571.25" y="734.36" angle="74.99" type="DEFAULT_VEHTYPE@follower" speed="11.92" pos="12.99" lane="E2_0" slope="0.00" acceleration="2.36"/>
        <vehicle id="leader" x="604.75" y="743.34" angle="74.99" type="DEFAULT_VEHTYPE@leader" speed="12.68" pos="47.67" lane="E2_0" slope="0.00" acceleration="1.20"/>
    </timestep>
    <timestep time="3.80">
        <vehicle id="follower" x="572.42" y="734.68" angle="74.99" type="DEFAULT_VEHTYPE@follower" speed="12.11" pos="14.21" lane="E2_0" slope="0.00" acceleration="1.89"/>
        <vehicle id="leader" x="606.00" y="743.68" angle="74.99" type="DEFAULT_VEHTYPE@leader" speed="12.93" pos="48.97" lane="E2_0" slope="0.00" acceleration="2.50"/>
    </timestep>
    <timestep time="3.90">
        <vehicle id="follower" x="573.61" y="735.00" angle="74.99" type="DEFAULT_VEHTYPE@follower" speed="12.27" pos="15.43" lane="E2_0" slope="0.00" acceleration="1.58"/>
        <vehicle id="leader" x="607.24" y="744.01" angle="74.99" type="DEFAULT_VEHTYPE@leader" speed="12.93" pos="50.26" lane="E2_0" slope="0.00" acceleration="0.00"/>
    </timestep>
    <timestep time="4.00">
        <vehicle id="follower" x="574.81" y="735.32" angle="74.99" type="DEFAULT_VEHTYPE@follower" speed="12.45" pos="16.68" lane="E2_0" slope="0.00" acceleration="1.77"/>
        <vehicle id="leader" x="608.50" y="744.35" angle="74.99" type="DEFAULT_VEHTYPE@leader" speed="13.03" pos="51.56" lane="E2_0" slope="0.00" acceleration="1.00"/>
    </timestep>
    <timestep time="4.10">
        <vehicle id="follower" x="576.03" y="735.65" angle="74.99" type="DEFAULT_VEHTYPE@follower" speed="12.63" pos="17.94" lane="E2_0" slope="0.00" acceleration="1.86"/>
        <vehicle id="leader" x="609.77" y="744.69" angle="74.99" type="DEFAULT_VEHTYPE@leader" speed="13.11" pos="52.87" lane="E2_0" slope="0.00" acceleration="0.80"/>
    </timestep>
    <timestep time="4.20">
        <vehicle id="follower" x="577.26" y="735.98" angle="74.99" type="DEFAULT_VEHTYPE@follower" speed="12.77" pos="19.22" lane="E2_0" slope="0.00" acceleration="1.41"/>
        <vehicle id="leader" x="611.06" y="745.04" angle="74.99" type="DEFAULT_VEHTYPE@leader" speed="13.35" pos="54.21" lane="E2_0" slope="0.00" acceleration="2.40"/>
    </timestep>
    <timestep time="4.30">
        <vehicle id="follower" x="578.52" y="736.31" angle="74.99" type="DEFAULT_VEHTYPE@follower" speed="13.00" pos="20.52" lane="E2_0" slope="0.00" acceleration="2.24"/>
        <vehicle id="leader" x="612.37" y="745.39" angle="74.99" type="DEFAULT_VEHTYPE@leader" speed="13.53" pos="55.56" lane="E2_0" slope="0.00" acceleration="1.80"/>
    </timestep>
    <timestep time="4.40">
        <vehicle id="follower" x="579.79" y="736.65" angle="74.99" type="DEFAULT_VEHTYPE@follower" speed="13.19" pos="21.84" lane="E2_0" slope="0.00" acceleration="1.88"/>
        <vehicle id="leader" x="613.71" y="745.75" angle="74.99" type="DEFAULT_VEHTYPE@leader" speed="13.94" pos="56.95" lane="E2_0" slope="0.00" acceleration="4.10"/>
    </timestep>
    <timestep time="4.50">
        <vehicle id="follower" x="581.08" y="737.00" angle="74.99" type="DEFAULT_VEHTYPE@follower" speed="13.33" pos="23.17" lane="E2_0" slope="0.00" acceleration="1.39"/>
        <vehicle id="leader" x="615.07" y="746.11" angle="74.99" type="DEFAULT_VEHTYPE@leader" speed="14.10" pos="58.36" lane="E2_0" slope="0.00" acceleration="1.60"/>
    </timestep>
    <timestep time="4.60">
        <vehicle id="follower" x="582.38" y="737.35" angle="74.99" type="DEFAULT_VEHTYPE@follower" speed="13.51" pos="24.52" lane="E2_0" slope="0.00" acceleration="1.80"/>
        <vehicle id="leader" x="616.46" y="746.48" angle="74.99" type="DEFAULT_VEHTYPE@leader" speed="14.36" pos="59.80" lane="E2_0" slope="0.00" acceleration="2.60"/>
    </timestep>
    <timestep time="4.70">
        <vehicle id="follower" x="583.71" y="737.71" angle="74.99" type="DEFAULT_VEHTYPE@follower" speed="13.77" pos="25.90" lane="E2_0" slope="0.00" acceleration="2.62"/>
        <vehicle id="leader" x="617.85" y="746.86" angle="74.99" type="DEFAULT_VEHTYPE@leader" speed="14.42" pos="61.24" lane="E2_0" slope="0.00" acceleration="0.60"/>
    </timestep>
    <timestep time="4.80">
        <vehicle id="follower" x="585.06" y="738.07" angle="74.99" type="DEFAULT_VEHTYPE@follower" speed="13.96" pos="27.29" lane="E2_0" slope="0.00" acceleration="1.93"/>
        <vehicle id="leader" x="619.26" y="747.24" angle="74.99" type="DEFAULT_VEHTYPE@leader" speed="14.58" pos="62.70" lane="E2_0" slope="0.00" acceleration="1.60"/>
    </timestep>
    <timestep time="4.90">
        <vehicle id="follower" x="586.43" y="738.43" angle="74.99" type="DEFAULT_VEHTYPE@follower" speed="14.22" pos="28.71" lane="E2_0" slope="0.00" acceleration="2.56"/>
        <vehicle id="leader" x="620.67" y="747.61" angle="74.99" type="DEFAULT_VEHTYPE@leader" speed="14.63" pos="64.16" lane="E2_0" slope="0.00" acceleration="0.50"/>
    </timestep>
    <timestep time="5.00">
        <vehicle id="follower" x="587.82" y="738.81" angle="74.99" type="DEFAULT_VEHTYPE@follower" speed="14.35" pos="30.15" lane="E2_0" slope="0.00" acceleration="1.34"/>
        <vehicle id="leader" x="622.10" y="748.00" angle="74.99" type="DEFAULT_VEHTYPE@leader" speed="14.73" pos="65.64" lane="E2_0" slope="0.00" acceleration="1.00"/>
    </timestep>
    <timestep time="5.10">
        <vehicle id="follower" x="589.23" y="739.18" angle="74.99" type="DEFAULT_VEHTYPE@follower" speed="14.57" pos="31.61" lane="E2_0" slope="0.00" acceleration="2.20"/>
        <vehicle id="leader" x="623.52" y="748.38" angle="74.99" type="DEFAULT_VEHTYPE@leader" speed="14.73" pos="67.11" lane="E2_0" slope="0.00" acceleration="0.00"/>
    </timestep>
    <timestep time="5.20">
        <vehicle id="follower" x="590.65" y="739.57" angle="74.99" type="DEFAULT_VEHTYPE@follower" speed="14.76" pos="33.08" lane="E2_0" slope="0.00" acceleration="1.90"/>
        <vehicle id="leader" x="624.95" y="748.76" angle="74.99" type="DEFAULT_VEHTYPE@leader" speed="14.81" pos="68.59" lane="E2_0" slope="0.00" acceleration="0.80"/>
    </timestep>
    <timestep time="5.30">
        <vehicle id="follower" x="592.10" y="739.95" angle="74.99" type="DEFAULT_VEHTYPE@follower" speed="15.00" pos="34.58" lane="E2_0" slope="0.00" acceleration="2.41"/>
        <vehicle id="leader" x="626.39" y="749.15" angle="74.99" type="DEFAULT_VEHTYPE@leader" speed="14.88" pos="70.08" lane="E2_0" slope="0.00" acceleration="0.70"/>
    </timestep>
    <timestep time="5.40">
        <vehicle id="follower" x="593.56" y="740.34" angle="74.99" type="DEFAULT_VEHTYPE@follower" speed="15.06" pos="36.09" lane="E2_0" slope="0.00" acceleration="0.63"/>
        <vehicle id="leader" x="627.84" y="749.53" angle="74.99" type="DEFAULT_VEHTYPE@leader" speed="15.02" pos="71.58" lane="E2_0" slope="0.00" acceleration="1.40"/>
    </timestep>
    <timestep time="5.50">
        <vehicle id="follower" x="595.02" y="740.74" angle="74.99" type="DEFAULT_VEHTYPE@follower" speed="15.11" pos="37.60" lane="E2_0" slope="0.00" acceleration="0.49"/>
        <vehicle id="leader" x="629.29" y="749.92" angle="74.99" type="DEFAULT_VEHTYPE@leader" speed="14.99" pos="73.08" lane="E2_0" slope="0.00" acceleration="-0.30"/>
    </timestep>
    <timestep time="5.60">
        <vehicle id="follower" x="596.48" y="741.13" angle="74.99" type="DEFAULT_VEHTYPE@follower" speed="15.11" pos="39.11" lane="E2_0" slope="0.00" acceleration="-0.03"/>
        <vehicle id="leader" x="630.74" y="750.31" angle="74.99" type="DEFAULT_VEHTYPE@leader" speed="15.06" pos="74.58" lane="E2_0" slope="0.00" acceleration="0.70"/>
    </timestep>
    <timestep time="5.70">
        <vehicle id="follower" x="597.94" y="741.52" angle="74.99" type="DEFAULT_VEHTYPE@follower" speed="15.12" pos="40.62" lane="E2_0" slope="0.00" acceleration="0.14"/>
        <vehicle id="leader" x="632.21" y="750.71" angle="74.99" type="DEFAULT_VEHTYPE@leader" speed="15.22" pos="76.11" lane="E2_0" slope="0.00" acceleration="1.60"/>
    </timestep>
    <timestep time="5.80">
        <vehicle id="follower" x="599.41" y="741.91" angle="74.99" type="DEFAULT_VEHTYPE@follower" speed="15.23" pos="42.15" lane="E2_0" slope="0.00" acceleration="1.05"/>
        <vehicle id="leader" x="633.68" y="751.10" angle="74.99" type="DEFAULT_VEHTYPE@leader" speed="15.16" pos="77.62" lane="E2_0" slope="0.00" acceleration="-0.60"/>
    </timestep>
    <timestep time="5.90">
        <vehicle id="follower" x="600.87" y="742.30" angle="74.99" type="DEFAULT_VEHTYPE@follower" speed="15.13" pos="43.66" lane="E2_0" slope="0.00" acceleration="-0.96"/>
        <vehicle id="leader" x="635.14" y="751.49" angle="74.99" type="DEFAULT_VEHTYPE@leader" speed="15.16" pos="79.14" lane="E2_0" slope="0.00" acceleration="0.00"/>
    </timestep>
    <timestep time="6.00">
        <vehicle id="follower" x="602.34" y="742.70" angle="74.99" type="DEFAULT_VEHTYPE@follower" speed="15.19" pos="45.18" lane="E2_0" slope="0.00" acceleration="0.55"/>
        <vehicle id="leader" x="636.59" y="751.88" angle="74.99" type="DEFAULT_VEHTYPE@leader" speed="15.06" pos="80.64" lane="E2_0" slope="0.00" acceleration="-1.00"/>
    </timestep>
    <timestep time="6.10">
        <vehicle id="follower" x="603.79" y="743.09" angle="74.99" type="DEFAULT_VEHTYPE@follower" speed="15.05" pos="46.68" lane="E2_0" slope="0.00" acceleration="-1.38"/>
        <vehicle id="leader" x="638.06" y="752.27" angle="74.99" type="DEFAULT_VEHTYPE@leader" speed="15.12" pos="82.16" lane="E2_0" slope="0.00" acceleration="0.60"/>
    </timestep>
    <timestep time="6.20">
        <vehicle id="follower" x="605.26" y="743.48" angle="74.99" type="DEFAULT_VEHTYPE@follower" speed="15.18" pos="48.20" lane="E2_0" slope="0.00" acceleration="1.28"/>
        <vehicle id="leader" x="639.52" y="752.67" angle="74.99" type="DEFAULT_VEHTYPE@leader" speed="15.16" pos="83.67" lane="E2_0" slope="0.00" acceleration="0.40"/>
    </timestep>
    <timestep time="6.30">
        <vehicle id="follower" x="606.72" y="743.87" angle="74.99" type="DEFAULT_VEHTYPE@follower" speed="15.13" pos="49.71" lane="E2_0" slope="0.00" acceleration="-0.52"/>
        <vehicle id="leader" x="641.01" y="753.06" angle="74.99" type="DEFAULT_VEHTYPE@leader" speed="15.40" pos="85.21" lane="E2_0" slope="0.00" acceleration="2.40"/>
    </timestep>
    <timestep time="6.40">
        <vehicle id="follower" x="608.19" y="744.27" angle="74.99" type="DEFAULT_VEHTYPE@follower" speed="15.27" pos="51.24" lane="E2_0" slope="0.00" acceleration="1.43"/>
        <vehicle id="leader" x="642.52" y="753.47" angle="74.99" type="DEFAULT_VEHTYPE@leader" speed="15.63" pos="86.78" lane="E2_0" slope="0.00" acceleration="2.30"/>
    </timestep>
    <timestep time="6.50">
        <vehicle id="follower" x="609.69" y="744.67" angle="74.99" type="DEFAULT_VEHTYPE@follower" speed="15.48" pos="52.79" lane="E2_0" slope="0.00" acceleration="2.09"/>
        <vehicle id="leader" x="644.04" y="753.88" angle="74.99" type="DEFAULT_VEHTYPE@leader" speed="15.74" pos="88.35" lane="E2_0" slope="0.00" acceleration="1.10"/>
    </timestep>
    <timestep time="6.60">
        <vehicle id="follower" x="611.19" y="745.07" angle="74.99" type="DEFAULT_VEHTYPE@follower" speed="15.56" pos="54.34" lane="E2_0" slope="0.00" acceleration="0.82"/>
        <vehicle id="leader" x="645.56" y="754.29" angle="74.99" type="DEFAULT_VEHTYPE@leader" speed="15.76" pos="89.93" lane="E2_0" slope="0.00" acceleration="0.20"/>
    </timestep>
    <timestep time="6.70">
        <vehicle id="follower" x="612.69" y="745.47" angle="74.99" type="DEFAULT_VEHTYPE@follower" speed="15.56" pos="55.90" lane="E2_0" slope="0.00" acceleration="0.01"/>
        <vehicle id="leader" x="647.09" y="754.70" angle="74.99" type="DEFAULT_VEHTYPE@leader" speed="15.87" pos="91.51" lane="E2_0" slope="0.00" acceleration="1.10"/>
    </timestep>
    <timestep time="6.80">
        <vehicle id="follower" x="614.21" y="745.88" angle="74.99" type="DEFAULT_VEHTYPE@follower" speed="15.67" pos="57.47" lane="E2_0" slope="0.00" acceleration="1.13"/>
        <vehicle id="leader" x="648.63" y="755.11" angle="74.99" type="DEFAULT_VEHTYPE@leader" speed="15.90" pos="93.10" lane="E2_0" slope="0.00" acceleration="0.30"/>
    </timestep>
    <timestep time="6.90">
        <vehicle id="follower" x="615.72" y="746.29" angle="74.99" type="DEFAULT_VEHTYPE@follower" speed="15.69" pos="59.04" lane="E2_0" slope="0.00" acceleration="0.18"/>
        <vehicle id="leader" x="650.18" y="755.52" angle="74.99" type="DEFAULT_VEHTYPE@leader" speed="16.11" pos="94.71" lane="E2_0" slope="0.00" acceleration="2.10"/>
    </timestep>
    <timestep time="7.00">
        <vehicle id="follower" x="617.26" y="746.70" angle="74.99" type="DEFAULT_VEHTYPE@follower" speed="15.87" pos="60.62" lane="E2_0" slope="0.00" acceleration="1.74"/>
        <vehicle id="leader" x="651.74" y="755.94" angle="74.99" type="DEFAULT_VEHTYPE@leader" speed="16.07" pos="96.32" lane="E2_0" slope="0.00" acceleration="-0.40"/>
    </timestep>
    <timestep time="7.10">
        <vehicle id="follower" x="618.78" y="747.11" angle="74.99" type="DEFAULT_VEHTYPE@follower" speed="15.77" pos="62.20" lane="E2_0" slope="0.00" acceleration="-0.95"/>
        <vehicle id="leader" x="653.29" y="756.36" angle="74.99" type="DEFAULT_VEHTYPE@leader" speed="16.07" pos="97.93" lane="E2_0" slope="0.00" acceleration="0.00"/>
    </timestep>
    <timestep time="7.20">
        <vehicle id="follower" x="620.31" y="747.52" angle="74.99" type="DEFAULT_VEHTYPE@follower" speed="15.83" pos="63.78" lane="E2_0" slope="0.00" acceleration="0.57"/>
        <vehicle id="leader" x="654.84" y="756.77" angle="74.99" type="DEFAULT_VEHTYPE@leader" speed="16.07" pos="99.54" lane="E2_0" slope="0.00" acceleration="0.00"/>
    </timestep>
    <timestep time="7.30">
        <vehicle id="follower" x="621.84" y="747.93" angle="74.99" type="DEFAULT_VEHTYPE@follower" speed="15.85" pos="65.37" lane="E2_0" slope="0.00" acceleration="0.26"/>
        <vehicle id="leader" x="656.39" y="757.19" angle="74.99" type="DEFAULT_VEHTYPE@leader" speed="16.07" pos="101.14" lane="E2_0" slope="0.00" acceleration="0.00"/>
    </timestep>
    <timestep time="7.40">
        <vehicle id="follower" x="623.37" y="748.34" angle="74.99" type="DEFAULT_VEHTYPE@follower" speed="15.85" pos="66.95" lane="E2_0" slope="0.00" acceleration="0.02"/>
        <vehicle id="leader" x="657.94" y="757.61" angle="74.99" type="DEFAULT_VEHTYPE@leader" speed="16.07" pos="102.75" lane="E2_0" slope="0.00" acceleration="0.00"/>
    </timestep>
    <timestep time="7.50">
        <vehicle id="follower" x="624.90" y="748.75" angle="74.99" type="DEFAULT_VEHTYPE@follower" speed="15.83" pos="68.54" lane="E2_0" slope="0.00" acceleration="-0.26"/>
        <vehicle id="leader" x="659.50" y="758.02" angle="74.99" type="DEFAULT_VEHTYPE@leader" speed="16.07" pos="104.36" lane="E2_0" slope="0.00" acceleration="0.00"/>
    </timestep>
    <timestep time="7.60">
        <vehicle id="follower" x="626.43" y="749.16" angle="74.99" type="DEFAULT_VEHTYPE@follower" speed="15.88" pos="70.12" lane="E2_0" slope="0.00" acceleration="0.49"/>
        <vehicle id="leader" x="661.04" y="758.44" angle="74.99" type="DEFAULT_VEHTYPE@leader" speed="16.01" pos="105.96" lane="E2_0" slope="0.00" acceleration="-0.60"/>
    </timestep>
    <timestep time="7.70">
        <vehicle id="follower" x="627.95" y="749.57" angle="74.99" type="DEFAULT_VEHTYPE@follower" speed="15.76" pos="71.70" lane="E2_0" slope="0.00" acceleration="-1.19"/>
        <vehicle id="leader" x="662.59" y="758.85" angle="74.99" type="DEFAULT_VEHTYPE@leader" speed="16.04" pos="107.56" lane="E2_0" slope="0.00" acceleration="0.30"/>
    </timestep>
    <timestep time="7.80">
        <vehicle id="follower" x="629.48" y="749.97" angle="74.99" type="DEFAULT_VEHTYPE@follower" speed="15.76" pos="73.28" lane="E2_0" slope="0.00" acceleration="0.02"/>
        <vehicle id="leader" x="664.15" y="759.27" angle="74.99" type="DEFAULT_VEHTYPE@leader" speed="16.16" pos="109.18" lane="E2_0" slope="0.00" acceleration="1.20"/>
    </timestep>
    <timestep time="7.90">
        <vehicle id="follower" x="631.01" y="750.38" angle="74.99" type="DEFAULT_VEHTYPE@follower" speed="15.84" pos="74.86" lane="E2_0" slope="0.00" acceleration="0.76"/>
        <vehicle id="leader" x="665.72" y="759.69" angle="74.99" type="DEFAULT_VEHTYPE@leader" speed="16.18" pos="110.80" lane="E2_0" slope="0.00" acceleration="0.20"/>
    </timestep>
    <timestep time="8.00">
        <vehicle id="follower" x="632.54" y="750.80" angle="74.99" type="DEFAULT_VEHTYPE@follower" speed="15.89" pos="76.45" lane="E2_0" slope="0.00" acceleration="0.52"/>
        <vehicle id="leader" x="667.28" y="760.11" angle="74.99" type="DEFAULT_VEHTYPE@leader" speed="16.15" pos="112.41" lane="E2_0" slope="0.00" acceleration="-0.30"/>
    </timestep>
    <timestep time="8.10">
        <vehicle id="follower" x="634.07" y="751.21" angle="74.99" type="DEFAULT_VEHTYPE@follower" speed="15.88" pos="78.04" lane="E2_0" slope="0.00" acceleration="-0.04"/>
        <vehicle id="leader" x="668.84" y="760.53" angle="74.99" type="DEFAULT_VEHTYPE@leader" speed="16.22" pos="114.03" lane="E2_0" slope="0.00" acceleration="0.70"/>
    </timestep>
    <timestep time="8.20">
        <vehicle id="follower" x="635.62" y="751.62" angle="74.99" type="DEFAULT_VEHTYPE@follower" speed="15.96" pos="79.63" lane="E2_0" slope="0.00" acceleration="0.79"/>
        <vehicle id="leader" x="670.42" y="760.95" angle="74.99" type="DEFAULT_VEHTYPE@leader" speed="16.32" pos="115.66" lane="E2_0" slope="0.00" acceleration="1.00"/>
    </timestep>
    <timestep time="8.30">
        <vehicle id="follower" x="637.16" y="752.03" angle="74.99" type="DEFAULT_VEHTYPE@follower" speed="16.00" pos="81.23" lane="E2_0" slope="0.00" acceleration="0.42"/>
        <vehicle id="leader" x="671.99" y="761.37" angle="74.99" type="DEFAULT_VEHTYPE@leader" speed="16.31" pos="117.30" lane="E2_0" slope="0.00" acceleration="-0.10"/>
    </timestep>
    <timestep time="8.40">
        <vehicle id="follower" x="638.71" y="752.45" angle="74.99" type="DEFAULT_VEHTYPE@follower" speed="16.07" pos="82.84" lane="E2_0" slope="0.00" acceleration="0.65"/>
        <vehicle id="leader" x="673.57" y="761.79" angle="74.99" type="DEFAULT_VEHTYPE@leader" speed="16.27" pos="118.92" lane="E2_0" slope="0.00" acceleration="-0.40"/>
    </timestep>
    <timestep time="8.50">
        <vehicle id="follower" x="640.26" y="752.86" angle="74.99" type="DEFAULT_VEHTYPE@follower" speed="15.98" pos="84.44" lane="E2_0" slope="0.00" acceleration="-0.92"/>
        <vehicle id="leader" x="675.14" y="762.22" angle="74.99" type="DEFAULT_VEHTYPE@leader" speed="16.30" pos="120.55" lane="E2_0" slope="0.00" acceleration="0.30"/>
    </timestep>
    <timestep time="8.60">
        <vehicle id="follower" x="641.80" y="753.28" angle="74.99" type="DEFAULT_VEHTYPE@follower" speed="15.96" pos="86.03" lane="E2_0" slope="0.00" acceleration="-0.15"/>
        <vehicle id="leader" x="676.72" y="762.64" angle="74.99" type="DEFAULT_VEHTYPE@leader" speed="16.40" pos="122.19" lane="E2_0" slope="0.00" acceleration="1.00"/>
    </timestep>
    <timestep time="8.70">
        <vehicle id="follower" x="643.36" y="753.70" angle="74.99" type="DEFAULT_VEHTYPE@follower" speed="16.16" pos="87.65" lane="E2_0" slope="0.00" acceleration="1.97"/>
        <vehicle id="leader" x="678.32" y="763.07" angle="74.99" type="DEFAULT_VEHTYPE@leader" speed="16.54" pos="123.85" lane="E2_0" slope="0.00" acceleration="1.40"/>
    </timestep>
    <timestep time="8.80">
        <vehicle id="follower" x="644.92" y="754.11" angle="74.99" type="DEFAULT_VEHTYPE@follower" speed="16.14" pos="89.26" lane="E2_0" slope="0.00" acceleration="-0.17"/>
        <vehicle id="leader" x="679.93" y="763.50" angle="74.99" type="DEFAULT_VEHTYPE@leader" speed="16.60" pos="125.51" lane="E2_0" slope="0.00" acceleration="0.60"/>
    </timestep>
    <timestep time="8.90">