<?xml version="1.0" encoding="UTF-8"?>

<!-- generated on 2023-04-04 14:19:25 by Eclipse SUMO sumo Version 1.16.0
<configuration xmlns:xsi="http://www.w3.org/2001/XMLSchema-instance" xsi:noNamespaceSchemaLocation="http://sumo.dlr.de/xsd/sumoConfiguration.xsd">

    <input>
        <net-file value="c:\Users\aryak\Projects\cf-sumo\sumo-xml\net.net.xml"/>
    </input>

    <output>
        <fcd-output value="c:\Users\aryak\Projects\cf-sumo\sumo-xml\output\621_fcd.xml"/>
        <fcd-output.acceleration value="true"/>
    </output>

    <time>
        <step-length value="0.1"/>
    </time>

    <report>
        <no-step-log value="true"/>
    </report>

    <traci_server>
        <remote-port value="49382"/>
    </traci_server>

</configuration>
-->

<fcd-export xmlns:xsi="http://www.w3.org/2001/XMLSchema-instance" xsi:noNamespaceSchemaLocation="http://sumo.dlr.de/xsd/fcd_file.xsd">
    <timestep time="0.00">
        <vehicle id="leader" x="563.63" y="732.32" angle="74.99" type="DEFAULT_VEHTYPE@leader" speed="10.35" pos="5.10" lane="E2_0" slope="0.00" acceleration="0.00"/>
    </timestep>
    <timestep time="0.10">
        <vehicle id="leader" x="564.65" y="732.59" angle="74.99" type="DEFAULT_VEHTYPE@leader" speed="10.55" pos="6.15" lane="E2_0" slope="0.00" acceleration="2.00"/>
    </timestep>
    <timestep time="0.20">
        <vehicle id="leader" x="565.67" y="732.87" angle="74.99" type="DEFAULT_VEHTYPE@leader" speed="10.63" pos="7.22" lane="E2_0" slope="0.00" acceleration="0.80"/>
    </timestep>
    <timestep time="0.30">
        <vehicle id="leader" x="566.69" y="733.14" angle="74.99" type="DEFAULT_VEHTYPE@leader" speed="10.53" pos="8.27" lane="E2_0" slope="0.00" acceleration="-1.00"/>
    </timestep>
    <timestep time="0.40">
        <vehicle id="leader" x="567.70" y="733.41" angle="74.99" type="DEFAULT_VEHTYPE@leader" speed="10.48" pos="9.32" lane="E2_0" slope="0.00" acceleration="-0.50"/>
    </timestep>
    <timestep time="0.50">
        <vehicle id="leader" x="568.73" y="733.69" angle="74.99" type="DEFAULT_VEHTYPE@leader" speed="10.66" pos="10.39" lane="E2_0" slope="0.00" acceleration="1.80"/>
    </timestep>
    <timestep time="0.60">
        <vehicle id="leader" x="569.77" y="733.97" angle="74.99" type="DEFAULT_VEHTYPE@leader" speed="10.78" pos="11.46" lane="E2_0" slope="0.00" acceleration="1.20"/>
    </timestep>
    <timestep time="0.70">
        <vehicle id="leader" x="570.81" y="734.25" angle="74.99" type="DEFAULT_VEHTYPE@leader" speed="10.78" pos="12.54" lane="E2_0" slope="0.00" acceleration="0.00"/>
    </timestep>
    <timestep time="0.80">
        <vehicle id="leader" x="571.85" y="734.53" angle="74.99" type="DEFAULT_VEHTYPE@leader" speed="10.78" pos="13.62" lane="E2_0" slope="0.00" acceleration="0.00"/>
    </timestep>
    <timestep time="0.90">
        <vehicle id="leader" x="572.90" y="734.81" angle="74.99" type="DEFAULT_VEHTYPE@leader" speed="10.82" pos="14.70" lane="E2_0" slope="0.00" acceleration="0.40"/>
    </timestep>
    <timestep time="1.00">
        <vehicle id="leader" x="573.94" y="735.09" angle="74.99" type="DEFAULT_VEHTYPE@leader" speed="10.82" pos="15.78" lane="E2_0" slope="0.00" acceleration="0.00"/>
    </timestep>
    <timestep time="1.10">
        <vehicle id="leader" x="574.99" y="735.37" angle="74.99" type="DEFAULT_VEHTYPE@leader" speed="10.82" pos="16.87" lane="E2_0" slope="0.00" acceleration="0.00"/>
    </timestep>
    <timestep time="1.20">
        <vehicle id="leader" x="576.03" y="735.65" angle="74.99" type="DEFAULT_VEHTYPE@leader" speed="10.82" pos="17.95" lane="E2_0" slope="0.00" acceleration="0.00"/>
    </timestep>
    <timestep time="1.30">
        <vehicle id="leader" x="577.10" y="735.93" angle="74.99" type="DEFAULT_VEHTYPE@leader" speed="11.07" pos="19.05" lane="E2_0" slope="0.00" acceleration="2.50"/>
    </timestep>
    <timestep time="1.40">
        <vehicle id="leader" x="578.18" y="736.22" angle="74.99" type="DEFAULT_VEHTYPE@leader" speed="11.16" pos="20.17" lane="E2_0" slope="0.00" acceleration="0.90"/>
    </timestep>
    <timestep time="1.50">
        <vehicle id="leader" x="579.26" y="736.51" angle="74.99" type="DEFAULT_VEHTYPE@leader" speed="11.19" pos="21.29" lane="E2_0" slope="0.00" acceleration="0.30"/>
    </timestep>
    <timestep time="1.60">
        <vehicle id="leader" x="580.35" y="736.80" angle="74.99" type="DEFAULT_VEHTYPE@leader" speed="11.27" pos="22.42" lane="E2_0" slope="0.00" acceleration="0.80"/>
    </timestep>
    <timestep time="1.70">
        <vehicle id="leader" x="581.44" y="737.10" angle="74.99" type="DEFAULT_VEHTYPE@leader" speed="11.27" pos="23.54" lane="E2_0" slope="0.00" acceleration="0.00"/>
    </timestep>
    <timestep time="1.80">
        <vehicle id="leader" x="582.53" y="737.39" angle="74.99" type="DEFAULT_VEHTYPE@leader" speed="11.27" pos="24.67" lane="E2_0" slope="0.00" acceleration="0.00"/>
    </timestep>
    <timestep time="1.90">
        <vehicle id="leader" x="583.64" y="737.68" angle="74.99" type="DEFAULT_VEHTYPE@leader" speed="11.46" pos="25.82" lane="E2_0" slope="0.00" acceleration="1.90"/>
    </timestep>
    <timestep time="2.00">
        <vehicle id="leader" x="584.75" y="737.98" angle="74.99" type="DEFAULT_VEHTYPE@leader" speed="11.51" pos="26.97" lane="E2_0" slope="0.00" acceleration="0.50"/>
    </timestep>
    <timestep time="2.10">
        <vehicle id="leader" x="585.87" y="738.28" angle="74.99" type="DEFAULT_VEHTYPE@leader" speed="11.63" pos="28.13" lane="E2_0" slope="0.00" acceleration="1.20"/>
    </timestep>
    <timestep time="2.20">
        <vehicle id="leader" x="587.01" y="738.59" angle="74.99" type="DEFAULT_VEHTYPE@leader" speed="11.76" pos="29.31" lane="E2_0" slope="0.00" acceleration="1.30"/>
    </timestep>
    <timestep time="2.30">
        <vehicle id="leader" x="588.15" y="738.89" angle="74.99" type="DEFAULT_VEHTYPE@leader" speed="11.82" pos="30.49" lane="E2_0" slope="0.00" acceleration="0.60"/>
    </timestep>
    <timestep time="2.40">
        <vehicle id="leader" x="589.29" y="739.20" angle="74.99" type="DEFAULT_VEHTYPE@leader" speed="11.82" pos="31.67" lane="E2_0" slope="0.00" acceleration="0.00"/>
    </timestep>
    <timestep time="2.50">
        <vehicle id="leader" x="590.43" y="739.51" angle="74.99" type="DEFAULT_VEHTYPE@leader" speed="11.84" pos="32.85" lane="E2_0" slope="0.00" acceleration="0.20"/>
    </timestep>
    <timestep time="2.60">
        <vehicle id="leader" x="591.60" y="739.82" angle="74.99" type="DEFAULT_VEHTYPE@leader" speed="12.04" pos="34.06" lane="E2_0" slope="0.00" acceleration="2.00"/>
    </timestep>
    <timestep time="2.70">
        <vehicle id="leader" x="592.76" y="740.13" angle="74.99" type="DEFAULT_VEHTYPE@leader" speed="12.04" pos="35.26" lane="E2_0" slope="0.00" acceleration="0.00"/>
    </timestep>
    <timestep time="2.80">
        <vehicle id="leader" x="593.94" y="740.45" angle="74.99" type="DEFAULT_VEHTYPE@leader" speed="12.19" pos="36.48" lane="E2_0" slope="0.00" acceleration="1.50"/>
    </timestep>
    <timestep time="2.90">
        <vehicle id="leader" x="595.13" y="740.77" angle="74.99" type="DEFAULT_VEHTYPE@leader" speed="12.37" pos="37.72" lane="E2_0" slope="0.00" acceleration="1.80"/>
    </timestep>
    <timestep time="3.00">
        <vehicle id="follower" x="563.63" y="732.32" angle="74.99" type="DEFAULT_VEHTYPE@follower" speed="10.35" pos="5.10" lane="E2_0" slope="0.00" acceleration="0.00"/>
        <vehicle id="leader" x="596.33" y="741.09" angle="74.99" type="DEFAULT_VEHTYPE@leader" speed="12.37" pos="38.95" lane="E2_0" slope="0.00" acceleration="0.00"/>
    </timestep>
    <timestep time="3.10">
        <vehicle id="follower" x="564.65" y="732.59" angle="74.99" type="DEFAULT_VEHTYPE@follower" speed="10.59" pos="6.16" lane="E2_0" slope="0.00" acceleration="2.38"/>
        <vehicle id="leader" x="597.52" y="741.41" angle="74.99" type="DEFAULT_VEHTYPE@leader" speed="12.37" pos="40.19" lane="E2_0" slope="0.00" acceleration="0.00"/>
    </timestep>
    <timestep time="3.20">
        <vehicle id="follower" x="565.70" y="732.88" angle="74.99" type="DEFAULT_VEHTYPE@follower" speed="10.85" pos="7.24" lane="E2_0" slope="0.00" acceleration="2.58"/>
        <vehicle id="leader" x="598.72" y="741.73" angle="74.99" type="DEFAULT_VEHTYPE@leader" speed="12.37" pos="41.43" lane="E2_0" slope="0.00" acceleration="0.00"/>
    </timestep>
    <timestep time="3.30">
        <vehicle id="follower" x="566.77" y="733.16" angle="74.99" type="DEFAULT_VEHTYPE@follower" speed="11.12" pos="8.36" lane="E2_0" slope="0.00" acceleration="2.76"/>
        <vehicle id="leader" x="599.91" y="742.05" angle="74.99" type="DEFAULT_VEHTYPE@leader" speed="12.37" pos="42.67" lane="E2_0" slope="0.00" acceleration="0.00"/>
    </timestep>
    <timestep time="3.40">
        <vehicle id="follower" x="567.87" y="733.46" angle="74.99" type="DEFAULT_VEHTYPE@follower" speed="11.35" pos="9.49" lane="E2_0" slope="0.00" acceleration="2.34"/>
        <vehicle id="leader" x="601.11" y="742.37" angle="74.99" type="DEFAULT_VEHTYPE@leader" speed="12.37" pos="43.90" lane="E2_0" slope="0.00" acceleration="0.00"/>
    </timestep>
    <timestep time="3.50">
        <vehicle id="follower" x="568.99" y="733.76" angle="74.99" type="DEFAULT_VEHTYPE@follower" speed="11.62" pos="10.65" lane="E2_0" slope="0.00" acceleration="2.62"/>
        <vehicle id="leader" x="602.31" y="742.69" angle="74.99" type="DEFAULT_VEHTYPE@leader" speed="12.45" pos="45.15" lane="E2_0" slope="0.00" acceleration="0.80"/>
    </timestep>
    <timestep time="3.60">
        <vehicle id="follower" x="570.13" y="734.06" angle="74.99" type="DEFAULT_VEHTYPE@follower" speed="11.76" pos="11.83" lane="E2_0" slope="0.00" acceleration="1.45"/>
        <vehicle id="leader" x="603.52" y="743.02" angle="74.99" type="DEFAULT_VEHTYPE@leader" speed="12.56" pos="46.40" lane="E2_0" slope="0.00" acceleration="1.10"/>
    </timestep>
    <timestep time="3.70">
        <vehicle id="follower" x="571.29" y="734.37" angle="74.99" type="DEFAULT_VEHTYPE@follower" speed="12.01" pos="13.03" lane="E2_0" slope="0.00" acceleration="2.49"/>
        <vehicle id="leader" x="604.75" y="743.34" angle="74.99" type="DEFAULT_VEHTYPE@leader" speed="12.68" pos="47.67" lane="E2_0" slope="0.00" acceleration="1.20"/>
    </timestep>
    <timestep time="3.80">
        <vehicle id="follower" x="572.47" y="734.69" angle="74.99" type="DEFAULT_VEHTYPE@follower" speed="12.21" pos="14.25" lane="E2_0" slope="0.00" acceleration="2.00"/>
        <vehicle id="leader" x="606.00" y="743.68" angle="74.99" type="DEFAULT_VEHTYPE@leader" speed="12.93" pos="48.97" lane="E2_0" slope="0.00" acceleration="2.50"/>
    </timestep>
    <timestep time="3.90">
        <vehicle id="follower" x="573.66" y="735.01" angle="74.99" type="DEFAULT_VEHTYPE@follower" speed="12.38" pos="15.49" lane="E2_0" slope="0.00" acceleration="1.66"/>
        <vehicle id="leader" x="607.24" y="744.01" angle="74.99" type="DEFAULT_VEHTYPE@leader" speed="12.93" pos="50.26" lane="E2_0" slope="0.00" acceleration="0.00"/>
    </timestep>
    <timestep time="4.00">
        <vehicle id="follower" x="574.87" y="735.34" angle="74.99" type="DEFAULT_VEHTYPE@follower" speed="12.56" pos="16.75" lane="E2_0" slope="0.00" acceleration="1.86"/>
        <vehicle id="leader" x="608.50" y="744.35" angle="74.99" type="DEFAULT_VEHTYPE@leader" speed="13.03" pos="51.56" lane="E2_0" slope="0.00" acceleration="1.00"/>
    </timestep>
    <timestep time="4.10">
        <vehicle id="follower" x="576.11" y="735.67" angle="74.99" type="DEFAULT_VEHTYPE@follower" speed="12.76" pos="18.02" lane="E2_0" slope="0.00" acceleration="1.97"/>
        <vehicle id="leader" x="609.77" y="744.69" angle="74.99" type="DEFAULT_VEHTYPE@leader" speed="13.11" pos="52.87" lane="E2_0" slope="0.00" acceleration="0.80"/>
    </timestep>
    <timestep time="4.20">
        <vehicle id="follower" x="577.35" y="736.00" angle="74.99" type="DEFAULT_VEHTYPE@follower" speed="12.91" pos="19.31" lane="E2_0" slope="0.00" acceleration="1.49"/>
        <vehicle id="leader" x="611.06" y="745.04" angle="74.99" type="DEFAULT_VEHTYPE@leader" speed="13.35" pos="54.21" lane="E2_0" slope="0.00" acceleration="2.40"/>
    </timestep>
    <timestep time="4.30">
        <vehicle id="follower" x="578.62" y="736.34" angle="74.99" type="DEFAULT_VEHTYPE@follower" speed="13.15" pos="20.63" lane="E2_0" slope="0.00" acceleration="2.37"/>
        <vehicle id="leader" x="612.37" y="745.39" angle="74.99" type="DEFAULT_VEHTYPE@leader" speed="13.53" pos="55.56" lane="E2_0" slope="0.00" acceleration="1.80"/>
    </timestep>
    <timestep time="4.40">
        <vehicle id="follower" x="579.91" y="736.69" angle="74.99" type="DEFAULT_VEHTYPE@follower" speed="13.35" pos="21.96" lane="E2_0" slope="0.00" acceleration="1.99"/>
        <vehicle id="leader" x="613.70" y="745.74" angle="74.99" type="DEFAULT_VEHTYPE@leader" speed="13.81" pos="56.94" lane="E2_0" slope="0.00" acceleration="2.80"/>
    </timestep>
    <timestep time="4.50">
        <vehicle id="follower" x="581.22" y="737.04" angle="74.99" type="DEFAULT_VEHTYPE@follower" speed="13.49" pos="23.31" lane="E2_0" slope="0.00" acceleration="1.46"/>
        <vehicle id="leader" x="615.06" y="746.11" angle="74.99" type="DEFAULT_VEHTYPE@leader" speed="14.09" pos="58.35" lane="E2_0" slope="0.00" acceleration="2.80"/>
    </timestep>
    <timestep time="4.60">
        <vehicle id="follower" x="582.54" y="737.39" angle="74.99" type="DEFAULT_VEHTYPE@follower" speed="13.68" pos="24.68" lane="E2_0" slope="0.00" acceleration="1.90"/>
        <vehicle id="leader" x="616.45" y="746.48" angle="74.99" type="DEFAULT_VEHTYPE@leader" speed="14.36" pos="59.79" lane="E2_0" slope="0.00" acceleration="2.70"/>
    </timestep>
    <timestep time="4.70">
        <vehicle id="follower" x="583.89" y="737.75" angle="74.99" type="DEFAULT_VEHTYPE@follower" speed="13.96" pos="26.07" lane="E2_0" slope="0.00" acceleration="2.76"/>
        <vehicle id="leader" x="617.84" y="746.85" angle="74.99" type="DEFAULT_VEHTYPE@leader" speed="14.42" pos="61.23" lane="E2_0" slope="0.00" acceleration="0.60"/>
    </timestep>
    <timestep time="4.80">
        <vehicle id="follower" x="585.25" y="738.12" angle="74.99" type="DEFAULT_VEHTYPE@follower" speed="14.16" pos="27.49" lane="E2_0" slope="0.00" acceleration="2.03"/>
        <vehicle id="leader" x="619.25" y="747.23" angle="74.99" type="DEFAULT_VEHTYPE@leader" speed="14.58" pos="62.69" lane="E2_0" slope="0.00" acceleration="1.60"/>
    </timestep>
    <timestep time="4.90">
        <vehicle id="follower" x="586.65" y="738.49" angle="74.99" type="DEFAULT_VEHTYPE@follower" speed="14.43" pos="28.93" lane="E2_0" slope="0.00" acceleration="2.71"/>
        <vehicle id="leader" x="620.66" y="747.61" angle="74.99" type="DEFAULT_VEHTYPE@leader" speed="14.63" pos="64.15" lane="E2_0" slope="0.00" acceleration="0.50"/>
    </timestep>
    <timestep time="5.00">
        <vehicle id="follower" x="588.05" y="738.87" angle="74.99" type="DEFAULT_VEHTYPE@follower" speed="14.57" pos="30.39" lane="E2_0" slope="0.00" acceleration="1.41"/>
        <vehicle id="leader" x="622.08" y="747.99" angle="74.99" type="DEFAULT_VEHTYPE@leader" speed="14.73" pos="65.62" lane="E2_0" slope="0.00" acceleration="1.00"/>
    </timestep>
    <timestep time="5.10">
        <vehicle id="follower" x="589.48" y="739.25" angle="74.99" type="DEFAULT_VEHTYPE@follower" speed="14.81" pos="31.87" lane="E2_0" slope="0.00" acceleration="2.33"/>
        <vehicle id="leader" x="623.51" y="748.37" angle="74.99" type="DEFAULT_VEHTYPE@leader" speed="14.73" pos="67.09" lane="E2_0" slope="0.00" acceleration="0.00"/>
    </timestep>
    <timestep time="5.20">
        <vehicle id="follower" x="590.93" y="739.64" angle="74.99" type="DEFAULT_VEHTYPE@follower" speed="15.01" pos="33.37" lane="E2_0" slope="0.00" acceleration="2.01"/>
        <vehicle id="leader" x="624.94" y="748.76" angle="74.99" type="DEFAULT_VEHTYPE@leader" speed="14.81" pos="68.58" lane="E2_0" slope="0.00" acceleration="0.80"/>
    </timestep>
    <timestep time="5.30">
        <vehicle id="follower" x="592.41" y="740.04" angle="74.99" type="DEFAULT_VEHTYPE@follower" speed="15.26" pos="34.90" lane="E2_0" slope="0.00" acceleration="2.55"/>
        <vehicle id="leader" x="626.37" y="749.14" angle="74.99" type="DEFAULT_VEHTYPE@leader" speed="14.88" pos="70.06" lane="E2_0" slope="0.00" acceleration="0.70"/>
    </timestep>
    <timestep time="5.40">
        <vehicle id="follower" x="593.91" y="740.44" angle="74.99" type="DEFAULT_VEHTYPE@follower" speed="15.53" pos="36.45" lane="E2_0" slope="0.00" acceleration="2.69"/>
        <vehicle id="leader" x="627.83" y="749.53" angle="74.99" type="DEFAULT_VEHTYPE@leader" speed="15.02" pos="71.57" lane="E2_0" slope="0.00" acceleration="1.40"/>
    </timestep>
    <timestep time="5.50">
        <vehicle id="follower" x="595.43" y="740.85" angle="74.99" type="DEFAULT_VEHTYPE@follower" speed="15.76" pos="38.03" lane="E2_0" slope="0.00" acceleration="2.31"/>
        <vehicle id="leader" x="629.27" y="749.92" angle="74.99" type="DEFAULT_VEHTYPE@leader" speed="14.99" pos="73.06" lane="E2_0" slope="0.00" acceleration="-0.30"/>
    </timestep>
    <timestep time="5.60">
        <vehicle id="follower" x="596.98" y="741.26" angle="74.99" type="DEFAULT_VEHTYPE@follower" speed="16.01" pos="39.63" lane="E2_0" slope="0.00" acceleration="2.50"/>
        <vehicle id="leader" x="630.73" y="750.31" angle="74.99" type="DEFAULT_VEHTYPE@leader" speed="15.06" pos="74.57" lane="E2_0" slope="0.00" acceleration="0.70"/>
    </timestep>
    <timestep time="5.70">
        <vehicle id="follower" x="598.53" y="741.68" angle="74.99" type="DEFAULT_VEHTYPE@follower" speed="16.04" pos="41.23" lane="E2_0" slope="0.00" acceleration="0.26"/>
        <vehicle id="leader" x="632.20" y="750.70" angle="74.99" type="DEFAULT_VEHTYPE@leader" speed="15.22" pos="76.09" lane="E2_0" slope="0.00" acceleration="1.60"/>
    </timestep>
    <timestep time="5.80">
        <vehicle id="follower" x="600.08" y="742.09" angle="74.99" type="DEFAULT_VEHTYPE@follower" speed="16.04" pos="42.84" lane="E2_0" slope="0.00" acceleration="0.05"/>
        <vehicle id="leader" x="633.66" y="751.10" angle="74.99" type="DEFAULT_VEHTYPE@leader" speed="15.16" pos="77.61" lane="E2_0" slope="0.00" acceleration="-0.60"/>
    </timestep>
    <timestep time="5.90">
        <vehicle id="follower" x="601.62" y="742.51" angle="74.99" type="DEFAULT_VEHTYPE@follower" speed="15.98" pos="44.43" lane="E2_0" slope="0.00" acceleration="-0.61"/>
        <vehicle id="leader" x="635.13" y="751.49" angle="74.99" type="DEFAULT_VEHTYPE@leader" speed="15.16" pos="79.12" lane="E2_0" slope="0.00" acceleration="0.00"/>
    </timestep>
    <timestep time="6.00">
        <vehicle id="follower" x="603.17" y="742.92" angle="74.99" type="DEFAULT_VEHTYPE@follower" speed="16.04" pos="46.04" lane="E2_0" slope="0.00" acceleration="0.57"/>
        <vehicle id="leader" x="636.58" y="751.88" angle="74.99" type="DEFAULT_VEHTYPE@leader" speed="15.06" pos="80.63" lane="E2_0" slope="0.00" acceleration="-1.00"/>
    </timestep>
    <timestep time="6.10">
        <vehicle id="follower" x="604.71" y="743.33" angle="74.99" type="DEFAULT_VEHTYPE@follower" speed="15.96" pos="47.63" lane="E2_0" slope="0.00" acceleration="-0.78"/>
        <vehicle id="leader" x="638.04" y="752.27" angle="74.99" type="DEFAULT_VEHTYPE@leader" speed="15.12" pos="82.14" lane="E2_0" slope="0.00" acceleration="0.60"/>
    </timestep>
    <timestep time="6.20">
        <vehicle id="follower" x="606.26" y="743.75" angle="74.99" type="DEFAULT_VEHTYPE@follower" speed="16.05" pos="49.24" lane="E2_0" slope="0.00" acceleration="0.94"/>
        <vehicle id="leader" x="639.51" y="752.66" angle="74.99" type="DEFAULT_VEHTYPE@leader" speed="15.16" pos="83.66" lane="E2_0" slope="0.00" acceleration="0.40"/>
    </timestep>
    <timestep time="6.30">
        <vehicle id="follower" x="607.80" y="744.16" angle="74.99" type="DEFAULT_VEHTYPE@follower" speed="15.97" pos="50.84" lane="E2_0" slope="0.00" acceleration="-0.80"/>
        <vehicle id="leader" x="640.99" y="753.06" angle="74.99" type="DEFAULT_VEHTYPE@leader" speed="15.40" pos="85.20" lane="E2_0" slope="0.00" acceleration="2.40"/>
    </timestep>
    <timestep time="6.40">
        <vehicle id="follower" x="609.35" y="744.58" angle="74.99" type="DEFAULT_VEHTYPE@follower" speed="15.97" pos="52.43" lane="E2_0" slope="0.00" acceleration="-0.07"/>
        <vehicle id="leader" x="642.50" y="753.47" angle="74.99" type="DEFAULT_VEHTYPE@leader" speed="15.63" pos="86.76" lane="E2_0" slope="0.00" acceleration="2.30"/>
    </timestep>
    <timestep time="6.50">
        <vehicle id="follower" x="610.89" y="744.99" angle="74.99" type="DEFAULT_VEHTYPE@follower" speed="16.04" pos="54.04" lane="E2_0" slope="0.00" acceleration="0.70"/>
        <vehicle id="leader" x="644.02" y="753.87" angle="74.99" type="DEFAULT_VEHTYPE@leader" speed="15.74" pos="88.34" lane="E2_0" slope="0.00" acceleration="1.10"/>
    </timestep>
    <timestep time="6.60">
        <vehicle id="follower" x="612.44" y="745.41" angle="74.99" type="DEFAULT_VEHTYPE@follower" speed="16.03" pos="55.64" lane="E2_0" slope="0.00" acceleration="-0.04"/>
        <vehicle id="leader" x="645.55" y="754.28" angle="74.99" type="DEFAULT_VEHTYPE@leader" speed="15.76" pos="89.91" lane="E2_0" slope="0.00" acceleration="0.20"/>
    </timestep>
    <timestep time="6.70">
        <vehicle id="follower" x="613.99" y="745.82" angle="74.99" type="DEFAULT_VEHTYPE@follower" speed="16.02" pos="57.24" lane="E2_0" slope="0.00" acceleration="-0.17"/>
        <vehicle id="leader" x="647.08" y="754.69" angle="74.99" type="DEFAULT_VEHTYPE@leader" speed="15.87" pos="91.50" lane="E2_0" slope="0.00" acceleration="1.10"/>
    </timestep>
    <timestep time="6.80">
        <vehicle id="follower" x="615.54" y="746.24" angle="74.99" type="DEFAULT_VEHTYPE@follower" speed="16.05" pos="58.85" lane="E2_0" slope="0.00" acceleration="0.39"/>
        <vehicle id="leader" x="648.61" y="755.10" angle="74.99" type="DEFAULT_VEHTYPE@leader" speed="15.90" pos="93.09" lane="E2_0" slope="0.00" acceleration="0.30"/>
    </timestep>
    <timestep time="6.90">
        <vehicle id="follower" x="617.09" y="746.65" angle="74.99" type="DEFAULT_VEHTYPE@follower" speed="16.05" pos="60.45" lane="E2_0" slope="0.00" acceleration="-0.07"/>
        <vehicle id="leader" x="650.17" y="755.52" angle="74.99" type="DEFAULT_VEHTYPE@leader" speed="16.10" pos="94.70" lane="E2_0" slope="0.00" acceleration="1.96"/>
    </timestep>
    <timestep time="7.00">
        <vehicle id="follower" x="618.64" y="747.07" angle="74.99" type="DEFAULT_VEHTYPE@follower" speed="16.08" pos="62.06" lane="E2_0" slope="0.00" acceleration="0.34"/>
        <vehicle id="leader" x="651.72" y="755.94" angle="74.99" type="DEFAULT_VEHTYPE@leader" speed="16.07" pos="96.31" lane="E2_0" slope="0.00" acceleration="-0.26"/>
    </timestep>
    <timestep time="7.10">
        <vehicle id="follower" x="620.19" y="747.48" angle="74.99" type="DEFAULT_VEHTYPE@follower" speed="16.00" pos="63.66" lane="E2_0" slope="0.00" acceleration="-0.78"/>
        <vehicle id="leader" x="653.27" y="756.35" angle="74.99" type="DEFAULT_VEHTYPE@leader" speed="16.07" pos="97.91" lane="E2_0" slope="0.00" acceleration="0.00"/>
    </timestep>
    <timestep time="7.20">
        <vehicle id="follower" x="621.74" y="747.90" angle="74.99" type="DEFAULT_VEHTYPE@follower" speed="16.06" pos="65.27" lane="E2_0" slope="0.00" acceleration="0.53"/>
        <vehicle id="leader" x="654.83" y="756.77" angle="74.99" type="DEFAULT_VEHTYPE@leader" speed="16.07" pos="99.52" lane="E2_0" slope="0.00" acceleration="0.00"/>
    </timestep>
    <timestep time="7.30">
        <vehicle id="follower" x="623.29" y="748.32" angle="74.99" type="DEFAULT_VEHTYPE@follower" speed="16.08" pos="66.87" lane="E2_0" slope="0.00" acceleration="0.22"/>
        <vehicle id="leader" x="656.38" y="757.19" angle="74.99" type="DEFAULT_VEHTYPE@leader" speed="16.07" pos="101.13" lane="E2_0" slope="0.00" acceleration="0.00"/>
    </timestep>
    <timestep time="7.40">
        <vehicle id="follower" x="624.85" y="748.73" angle="74.99" type="DEFAULT_VEHTYPE@follower" speed="16.08" pos="68.48" lane="E2_0" slope="0.00" acceleration="-0.02"/>
        <vehicle id="leader" x="657.93" y="757.60" angle="74.99" type="DEFAULT_VEHTYPE@leader" speed="16.07" pos="102.73" lane="E2_0" slope="0.00" acceleration="0.00"/>
    </timestep>
    <timestep time="7.50">
        <vehicle id="follower" x="626.40" y="749.15" angle="74.99" type="DEFAULT_VEHTYPE@follower" speed="16.04" pos="70.09" lane="E2_0" slope="0.00" acceleration="-0.32"/>
        <vehicle id="leader" x="659.48" y="758.02" angle="74.99" type="DEFAULT_VEHTYPE@leader" speed="16.07" pos="104.34" lane="E2_0" slope="0.00" acceleration="0.00"/>
    </timestep>
    <timestep time="7.60">
        <vehicle id="follower" x="627.95" y="749.56" angle="74.99" type="DEFAULT_VEHTYPE@follower" speed="16.09" pos="71.70" lane="E2_0" slope="0.00" acceleration="0.46"/>
        <vehicle id="leader" x="661.03" y="758.43" angle="74.99" type="DEFAULT_VEHTYPE@leader" speed="16.01" pos="105.94" lane="E2_0" slope="0.00" acceleration="-0.60"/>
    </timestep>
    <timestep time="7.70">
        <vehicle id="follower" x="629.50" y="749.98" angle="74.99" type="DEFAULT_VEHTYPE@follower" speed="16.00" pos="73.30" lane="E2_0" slope="0.00" acceleration="-0.89"/>
        <vehicle id="leader" x="662.58" y="758.85" angle="74.99" type="DEFAULT_VEHTYPE@leader" speed="16.04" pos="107.55" lane="E2_0" slope="0.00" acceleration="0.30"/>
    </timestep>
    <timestep time="7.80">
        <vehicle id="follower" x="631.04" y="750.39" angle="74.99" type="DEFAULT_VEHTYPE@follower" speed="15.98" pos="74.89" lane="E2_0" slope="0.00" acceleration="-0.24"/>
        <vehicle id="leader" x="664.13" y="759.26" angle="74.99" type="DEFAULT_VEHTYPE@leader" speed="16.10" pos="109.16" lane="E2_0" slope="0.00" acceleration="0.56"/>
    </timestep>
    <timestep time="7.90">
        <vehicle id="follower" x="632.58" y="750.81" angle="74.99" type="DEFAULT_VEHTYPE@follower" speed="15.97" pos="76.49" lane="E2_0" slope="0.00" acceleration="-0.08"/>
        <vehicle id="leader" x="665.69" y="759.68" angle="74.99" type="DEFAULT_VEHTYPE@leader" speed="16.10" pos="110.76" lane="E2_0" slope="0.00" acceleration="0.00"/>
    </timestep>
    <timestep time="8.00">
        <vehicle id="follower" x="634.13" y="751.22" angle="74.99" type="DEFAULT_VEHTYPE@follower" speed="16.00" pos="78.09" lane="E2_0" slope="0.00" acceleration="0.34"/>
        <vehicle id="leader" x="667.24" y="760.10" angle="74.99" type="DEFAULT_VEHTYPE@leader" speed="16.10" pos="112.37" lane="E2_0" slope="0.00" acceleration="0.00"/>
    </timestep>
    <timestep time="8.10">
        <vehicle id="follower" x="635.67" y="751.64" angle="74.99" type="DEFAULT_VEHTYPE@follower" speed="16.01" pos="79.69" lane="E2_0" slope="0.00" acceleration="0.10"/>
        <vehicle id="leader" x="668.80" y="760.51" angle="74.99" type="DEFAULT_VEHTYPE@leader" speed="16.10" pos="113.98" lane="E2_0" slope="0.00" acceleration="0.00"/>
    </timestep>
    <timestep time="8.20">
        <vehicle id="follower" x="637.22" y="752.05" angle="74.99" type="DEFAULT_VEHTYPE@follower" speed="16.04" pos="81.30" lane="E2_0" slope="0.00" acceleration="0.29"/>
        <vehicle id="leader" x="670.35" y="760.93" angle="74.99" type="DEFAULT_VEHTYPE@leader" speed="16.10" pos="115.59" lane="E2_0" slope="0.00" acceleration="0.00"/>
    </timestep>
    <timestep time="8.30">
        <vehicle id="follower" x="638.77" y="752.47" angle="74.99" type="DEFAULT_VEHTYPE@follower" speed="16.01" pos="82.90" lane="E2_0" slope="0.00" acceleration="-0.30"/>
        <vehicle id="leader" x="671.91" y="761.35" angle="74.99" type="DEFAULT_VEHTYPE@leader" speed="16.10" pos="117.20" lane="E2_0" slope="0.00" acceleration="0.00"/>
    </timestep>
    <timestep time="8.40">
        <vehicle id="follower" x="640.32" y="752.88" angle="74.99" type="DEFAULT_VEHTYPE@follower" speed="16.08" pos="84.51" lane="E2_0" slope="0.00" acceleration="0.69"/>
        <vehicle id="leader" x="673.46" y="761.76" angle="74.99" type="DEFAULT_VEHTYPE@leader" speed="16.10" pos="118.81" lane="E2_0" slope="0.00" acceleration="0.00"/>
    </timestep>
    <timestep time="8.50">
        <vehicle id="follower" x="641.87" y="753.30" angle="74.99" type="DEFAULT_VEHTYPE@follower" speed="16.01" pos="86.11" lane="E2_0" slope="0.00" acceleration="-0.75"/>
        <vehicle id="leader" x="675.02" y="762.18" angle="74.99" type="DEFAULT_VEHTYPE@leader" speed="16.10" pos="120.42" lane="E2_0" slope="0.00" acceleration="0.00"/>
    </timestep>
    <timestep time="8.60">
        <vehicle id="follower" x="643.41" y="753.71" angle="74.99" type="DEFAULT_VEHTYPE@follower" speed="15.96" pos="87.70" lane="E2_0" slope="0.00" acceleration="-0.43"/>
        <vehicle id="leader" x="676.57" y="762.60" angle="74.99" type="DEFAULT_VEHTYPE@leader" speed="16.10" pos="122.03" lane="E2_0" slope="0.00" acceleration="0.00"/>
    </timestep>
    <timestep time="8.70">
        <vehicle id="follower" x="644.97" y="754.13" angle="74.99" type="DEFAULT_VEHTYPE@follower" speed="16.09" pos="89.31" lane="E2_0" slope="0.00" acceleration="1.30"/>
        <vehicle id="leader" x="678.12" y="763.02" angle="74.99" type="DEFAULT_VEHTYPE@leader" speed="16.10" pos="123.64" lane="E2_0" slope="0.00" acceleration="0.00"/>
    </timestep>
    <timestep time="8.80">
        <vehicle id="follower" x="646.51" y="754.54" angle="74.99" type="DEFAULT_VEHTYPE@follower" speed="15.97" pos="90.91" lane="E2_0" slope="0.00" acceleration="-1.22"/>
        <vehicle id="leader" x="679.68" y="763.43" angle="74.99" type="DEFAULT_VEHTYPE@leader" speed="16.10" pos="125.25" lane="E2_0" slope="0.00" acceleration="0.00"/>
    </timestep>
    <timestep time="8.90">