<?xml version="1.0" encoding="UTF-8"?>

<!-- generated on 2023-04-04 14:22:04 by Eclipse SUMO sumo Version 1.16.0
<configuration xmlns:xsi="http://www.w3.org/2001/XMLSchema-instance" xsi:noNamespaceSchemaLocation="http://sumo.dlr.de/xsd/sumoConfiguration.xsd">

    <input>
        <net-file value="c:\Users\aryak\Projects\cf-sumo\sumo-xml\net.net.xml"/>
    </input>

    <output>
        <fcd-output value="c:\Users\aryak\Projects\cf-sumo\sumo-xml\output\765_fcd.xml"/>
        <fcd-output.acceleration value="true"/>
    </output>

    <time>
        <step-length value="0.1"/>
    </time>

    <report>
        <no-step-log value="true"/>
    </report>

    <traci_server>
        <remote-port value="50141"/>
    </traci_server>

</configuration>
-->

<fcd-export xmlns:xsi="http://www.w3.org/2001/XMLSchema-instance" xsi:noNamespaceSchemaLocation="http://sumo.dlr.de/xsd/fcd_file.xsd">
    <timestep time="0.00">
        <vehicle id="leader" x="563.63" y="732.32" angle="74.99" type="DEFAULT_VEHTYPE@leader" speed="10.35" pos="5.10" lane="E2_0" slope="0.00" acceleration="0.00"/>
    </timestep>
    <timestep time="0.10">
        <vehicle id="leader" x="564.65" y="732.59" angle="74.99" type="DEFAULT_VEHTYPE@leader" speed="10.55" pos="6.15" lane="E2_0" slope="0.00" acceleration="2.00"/>
    </timestep>
    <timestep time="0.20">
        <vehicle id="leader" x="565.67" y="732.87" angle="74.99" type="DEFAULT_VEHTYPE@leader" speed="10.63" pos="7.22" lane="E2_0" slope="0.00" acceleration="0.80"/>
    </timestep>
    <timestep time="0.30">
        <vehicle id="leader" x="566.69" y="733.14" angle="74.99" type="DEFAULT_VEHTYPE@leader" speed="10.53" pos="8.27" lane="E2_0" slope="0.00" acceleration="-1.00"/>
    </timestep>
    <timestep time="0.40">
        <vehicle id="leader" x="567.70" y="733.41" angle="74.99" type="DEFAULT_VEHTYPE@leader" speed="10.48" pos="9.32" lane="E2_0" slope="0.00" acceleration="-0.50"/>
    </timestep>
    <timestep time="0.50">
        <vehicle id="leader" x="568.73" y="733.69" angle="74.99" type="DEFAULT_VEHTYPE@leader" speed="10.66" pos="10.39" lane="E2_0" slope="0.00" acceleration="1.80"/>
    </timestep>
    <timestep time="0.60">
        <vehicle id="leader" x="569.77" y="733.97" angle="74.99" type="DEFAULT_VEHTYPE@leader" speed="10.78" pos="11.46" lane="E2_0" slope="0.00" acceleration="1.20"/>
    </timestep>
    <timestep time="0.70">
        <vehicle id="leader" x="570.81" y="734.25" angle="74.99" type="DEFAULT_VEHTYPE@leader" speed="10.78" pos="12.54" lane="E2_0" slope="0.00" acceleration="0.00"/>
    </timestep>
    <timestep time="0.80">
        <vehicle id="leader" x="571.85" y="734.53" angle="74.99" type="DEFAULT_VEHTYPE@leader" speed="10.78" pos="13.62" lane="E2_0" slope="0.00" acceleration="0.00"/>
    </timestep>
    <timestep time="0.90">
        <vehicle id="leader" x="572.90" y="734.81" angle="74.99" type="DEFAULT_VEHTYPE@leader" speed="10.82" pos="14.70" lane="E2_0" slope="0.00" acceleration="0.40"/>
    </timestep>
    <timestep time="1.00">
        <vehicle id="leader" x="573.94" y="735.09" angle="74.99" type="DEFAULT_VEHTYPE@leader" speed="10.82" pos="15.78" lane="E2_0" slope="0.00" acceleration="0.00"/>
    </timestep>
    <timestep time="1.10">
        <vehicle id="leader" x="574.99" y="735.37" angle="74.99" type="DEFAULT_VEHTYPE@leader" speed="10.82" pos="16.87" lane="E2_0" slope="0.00" acceleration="0.00"/>
    </timestep>
    <timestep time="1.20">
        <vehicle id="leader" x="576.03" y="735.65" angle="74.99" type="DEFAULT_VEHTYPE@leader" speed="10.82" pos="17.95" lane="E2_0" slope="0.00" acceleration="0.00"/>
    </timestep>
    <timestep time="1.30">
        <vehicle id="leader" x="577.10" y="735.93" angle="74.99" type="DEFAULT_VEHTYPE@leader" speed="11.07" pos="19.05" lane="E2_0" slope="0.00" acceleration="2.50"/>
    </timestep>
    <timestep time="1.40">
        <vehicle id="leader" x="578.18" y="736.22" angle="74.99" type="DEFAULT_VEHTYPE@leader" speed="11.16" pos="20.17" lane="E2_0" slope="0.00" acceleration="0.90"/>
    </timestep>
    <timestep time="1.50">
        <vehicle id="leader" x="579.26" y="736.51" angle="74.99" type="DEFAULT_VEHTYPE@leader" speed="11.19" pos="21.29" lane="E2_0" slope="0.00" acceleration="0.30"/>
    </timestep>
    <timestep time="1.60">
        <vehicle id="leader" x="580.35" y="736.80" angle="74.99" type="DEFAULT_VEHTYPE@leader" speed="11.27" pos="22.42" lane="E2_0" slope="0.00" acceleration="0.80"/>
    </timestep>
    <timestep time="1.70">
        <vehicle id="leader" x="581.44" y="737.10" angle="74.99" type="DEFAULT_VEHTYPE@leader" speed="11.27" pos="23.54" lane="E2_0" slope="0.00" acceleration="0.00"/>
    </timestep>
    <timestep time="1.80">
        <vehicle id="leader" x="582.53" y="737.39" angle="74.99" type="DEFAULT_VEHTYPE@leader" speed="11.27" pos="24.67" lane="E2_0" slope="0.00" acceleration="0.00"/>
    </timestep>
    <timestep time="1.90">
        <vehicle id="leader" x="583.64" y="737.68" angle="74.99" type="DEFAULT_VEHTYPE@leader" speed="11.46" pos="25.82" lane="E2_0" slope="0.00" acceleration="1.90"/>
    </timestep>
    <timestep time="2.00">
        <vehicle id="leader" x="584.75" y="737.98" angle="74.99" type="DEFAULT_VEHTYPE@leader" speed="11.51" pos="26.97" lane="E2_0" slope="0.00" acceleration="0.50"/>
    </timestep>
    <timestep time="2.10">
        <vehicle id="leader" x="585.87" y="738.28" angle="74.99" type="DEFAULT_VEHTYPE@leader" speed="11.63" pos="28.13" lane="E2_0" slope="0.00" acceleration="1.20"/>
    </timestep>
    <timestep time="2.20">
        <vehicle id="leader" x="587.01" y="738.59" angle="74.99" type="DEFAULT_VEHTYPE@leader" speed="11.76" pos="29.31" lane="E2_0" slope="0.00" acceleration="1.30"/>
    </timestep>
    <timestep time="2.30">
        <vehicle id="leader" x="588.15" y="738.89" angle="74.99" type="DEFAULT_VEHTYPE@leader" speed="11.82" pos="30.49" lane="E2_0" slope="0.00" acceleration="0.60"/>
    </timestep>
    <timestep time="2.40">
        <vehicle id="leader" x="589.29" y="739.20" angle="74.99" type="DEFAULT_VEHTYPE@leader" speed="11.82" pos="31.67" lane="E2_0" slope="0.00" acceleration="0.00"/>
    </timestep>
    <timestep time="2.50">
        <vehicle id="leader" x="590.43" y="739.51" angle="74.99" type="DEFAULT_VEHTYPE@leader" speed="11.84" pos="32.85" lane="E2_0" slope="0.00" acceleration="0.20"/>
    </timestep>
    <timestep time="2.60">
        <vehicle id="leader" x="591.60" y="739.82" angle="74.99" type="DEFAULT_VEHTYPE@leader" speed="12.04" pos="34.06" lane="E2_0" slope="0.00" acceleration="2.00"/>
    </timestep>
    <timestep time="2.70">
        <vehicle id="leader" x="592.76" y="740.13" angle="74.99" type="DEFAULT_VEHTYPE@leader" speed="12.04" pos="35.26" lane="E2_0" slope="0.00" acceleration="0.00"/>
    </timestep>
    <timestep time="2.80">
        <vehicle id="leader" x="593.93" y="740.44" angle="74.99" type="DEFAULT_VEHTYPE@leader" speed="12.07" pos="36.47" lane="E2_0" slope="0.00" acceleration="0.32"/>
    </timestep>
    <timestep time="2.90">
        <vehicle id="leader" x="595.09" y="740.76" angle="74.99" type="DEFAULT_VEHTYPE@leader" speed="12.07" pos="37.68" lane="E2_0" slope="0.00" acceleration="0.00"/>
    </timestep>
    <timestep time="3.00">
        <vehicle id="follower" x="563.63" y="732.32" angle="74.99" type="DEFAULT_VEHTYPE@follower" speed="10.35" pos="5.10" lane="E2_0" slope="0.00" acceleration="0.00"/>
        <vehicle id="leader" x="596.26" y="741.07" angle="74.99" type="DEFAULT_VEHTYPE@leader" speed="12.07" pos="38.88" lane="E2_0" slope="0.00" acceleration="0.00"/>
    </timestep>
    <timestep time="3.10">
        <vehicle id="follower" x="564.65" y="732.59" angle="74.99" type="DEFAULT_VEHTYPE@follower" speed="10.57" pos="6.16" lane="E2_0" slope="0.00" acceleration="2.21"/>
        <vehicle id="leader" x="597.42" y="741.38" angle="74.99" type="DEFAULT_VEHTYPE@leader" speed="12.07" pos="40.09" lane="E2_0" slope="0.00" acceleration="0.00"/>
    </timestep>
    <timestep time="3.20">
        <vehicle id="follower" x="565.69" y="732.87" angle="74.99" type="DEFAULT_VEHTYPE@follower" speed="10.81" pos="7.24" lane="E2_0" slope="0.00" acceleration="2.39"/>
        <vehicle id="leader" x="598.59" y="741.69" angle="74.99" type="DEFAULT_VEHTYPE@leader" speed="12.07" pos="41.30" lane="E2_0" slope="0.00" acceleration="0.00"/>
    </timestep>
    <timestep time="3.30">
        <vehicle id="follower" x="566.76" y="733.16" angle="74.99" type="DEFAULT_VEHTYPE@follower" speed="11.07" pos="8.34" lane="E2_0" slope="0.00" acceleration="2.56"/>
        <vehicle id="leader" x="599.76" y="742.01" angle="74.99" type="DEFAULT_VEHTYPE@leader" speed="12.07" pos="42.51" lane="E2_0" slope="0.00" acceleration="0.00"/>
    </timestep>
    <timestep time="3.40">
        <vehicle id="follower" x="567.85" y="733.45" angle="74.99" type="DEFAULT_VEHTYPE@follower" speed="11.28" pos="9.47" lane="E2_0" slope="0.00" acceleration="2.17"/>
        <vehicle id="leader" x="600.92" y="742.32" angle="74.99" type="DEFAULT_VEHTYPE@leader" speed="12.07" pos="43.71" lane="E2_0" slope="0.00" acceleration="0.00"/>
    </timestep>
    <timestep time="3.50">
        <vehicle id="follower" x="568.96" y="733.75" angle="74.99" type="DEFAULT_VEHTYPE@follower" speed="11.53" pos="10.63" lane="E2_0" slope="0.00" acceleration="2.44"/>
        <vehicle id="leader" x="602.09" y="742.63" angle="74.99" type="DEFAULT_VEHTYPE@leader" speed="12.07" pos="44.92" lane="E2_0" slope="0.00" acceleration="0.00"/>
    </timestep>
    <timestep time="3.60">
        <vehicle id="follower" x="570.09" y="734.05" angle="74.99" type="DEFAULT_VEHTYPE@follower" speed="11.66" pos="11.79" lane="E2_0" slope="0.00" acceleration="1.35"/>
        <vehicle id="leader" x="603.25" y="742.94" angle="74.99" type="DEFAULT_VEHTYPE@leader" speed="12.07" pos="46.13" lane="E2_0" slope="0.00" acceleration="0.00"/>
    </timestep>
    <timestep time="3.70">
        <vehicle id="follower" x="571.24" y="734.36" angle="74.99" type="DEFAULT_VEHTYPE@follower" speed="11.89" pos="12.98" lane="E2_0" slope="0.00" acceleration="2.31"/>
        <vehicle id="leader" x="604.42" y="743.26" angle="74.99" type="DEFAULT_VEHTYPE@leader" speed="12.07" pos="47.33" lane="E2_0" slope="0.00" acceleration="0.00"/>
    </timestep>
    <timestep time="3.80">
        <vehicle id="follower" x="572.40" y="734.67" angle="74.99" type="DEFAULT_VEHTYPE@follower" speed="12.00" pos="14.18" lane="E2_0" slope="0.00" acceleration="1.05"/>
        <vehicle id="leader" x="605.59" y="743.57" angle="74.99" type="DEFAULT_VEHTYPE@leader" speed="12.07" pos="48.54" lane="E2_0" slope="0.00" acceleration="0.00"/>
    </timestep>
    <timestep time="3.90">
        <vehicle id="follower" x="573.55" y="734.98" angle="74.99" type="DEFAULT_VEHTYPE@follower" speed="11.97" pos="15.38" lane="E2_0" slope="0.00" acceleration="-0.31"/>
        <vehicle id="leader" x="606.75" y="743.88" angle="74.99" type="DEFAULT_VEHTYPE@leader" speed="12.07" pos="49.75" lane="E2_0" slope="0.00" acceleration="0.00"/>
    </timestep>
    <timestep time="4.00">
        <vehicle id="follower" x="574.71" y="735.29" angle="74.99" type="DEFAULT_VEHTYPE@follower" speed="11.99" pos="16.58" lane="E2_0" slope="0.00" acceleration="0.19"/>
        <vehicle id="leader" x="607.92" y="744.19" angle="74.99" type="DEFAULT_VEHTYPE@leader" speed="12.07" pos="50.96" lane="E2_0" slope="0.00" acceleration="0.00"/>
    </timestep>
    <timestep time="4.10">
        <vehicle id="follower" x="575.87" y="735.60" angle="74.99" type="DEFAULT_VEHTYPE@follower" speed="11.99" pos="17.78" lane="E2_0" slope="0.00" acceleration="0.09"/>
        <vehicle id="leader" x="609.08" y="744.51" angle="74.99" type="DEFAULT_VEHTYPE@leader" speed="12.07" pos="52.16" lane="E2_0" slope="0.00" acceleration="0.00"/>
    </timestep>
    <timestep time="4.20">
        <vehicle id="follower" x="577.02" y="735.91" angle="74.99" type="DEFAULT_VEHTYPE@follower" speed="11.95" pos="18.97" lane="E2_0" slope="0.00" acceleration="-0.44"/>
        <vehicle id="leader" x="610.25" y="744.82" angle="74.99" type="DEFAULT_VEHTYPE@leader" speed="12.07" pos="53.37" lane="E2_0" slope="0.00" acceleration="0.00"/>
    </timestep>
    <timestep time="4.30">
        <vehicle id="follower" x="578.19" y="736.22" angle="74.99" type="DEFAULT_VEHTYPE@follower" speed="12.03" pos="20.17" lane="E2_0" slope="0.00" acceleration="0.82"/>
        <vehicle id="leader" x="611.42" y="745.13" angle="74.99" type="DEFAULT_VEHTYPE@leader" speed="12.07" pos="54.58" lane="E2_0" slope="0.00" acceleration="0.00"/>
    </timestep>
    <timestep time="4.40">
        <vehicle id="follower" x="579.34" y="736.53" angle="74.99" type="DEFAULT_VEHTYPE@follower" speed="12.00" pos="21.37" lane="E2_0" slope="0.00" acceleration="-0.35"/>
        <vehicle id="leader" x="612.58" y="745.44" angle="74.99" type="DEFAULT_VEHTYPE@leader" speed="12.07" pos="55.78" lane="E2_0" slope="0.00" acceleration="0.00"/>
    </timestep>
    <timestep time="4.50">
        <vehicle id="follower" x="580.50" y="736.84" angle="74.99" type="DEFAULT_VEHTYPE@follower" speed="11.95" pos="22.57" lane="E2_0" slope="0.00" acceleration="-0.49"/>
        <vehicle id="leader" x="613.75" y="745.76" angle="74.99" type="DEFAULT_VEHTYPE@leader" speed="12.07" pos="56.99" lane="E2_0" slope="0.00" acceleration="0.00"/>
    </timestep>
    <timestep time="4.60">
        <vehicle id="follower" x="581.66" y="737.15" angle="74.99" type="DEFAULT_VEHTYPE@follower" speed="11.99" pos="23.77" lane="E2_0" slope="0.00" acceleration="0.41"/>
        <vehicle id="leader" x="614.91" y="746.07" angle="74.99" type="DEFAULT_VEHTYPE@leader" speed="12.07" pos="58.20" lane="E2_0" slope="0.00" acceleration="0.00"/>
    </timestep>
    <timestep time="4.70">
        <vehicle id="follower" x="582.82" y="737.47" angle="74.99" type="DEFAULT_VEHTYPE@follower" speed="12.07" pos="24.97" lane="E2_0" slope="0.00" acceleration="0.80"/>
        <vehicle id="leader" x="616.08" y="746.38" angle="74.99" type="DEFAULT_VEHTYPE@leader" speed="12.07" pos="59.41" lane="E2_0" slope="0.00" acceleration="0.00"/>
    </timestep>
    <timestep time="4.80">
        <vehicle id="follower" x="583.98" y="737.78" angle="74.99" type="DEFAULT_VEHTYPE@follower" speed="12.00" pos="26.17" lane="E2_0" slope="0.00" acceleration="-0.67"/>
        <vehicle id="leader" x="617.25" y="746.69" angle="74.99" type="DEFAULT_VEHTYPE@leader" speed="12.07" pos="60.61" lane="E2_0" slope="0.00" acceleration="0.00"/>
    </timestep>
    <timestep time="4.90">
        <vehicle id="follower" x="585.15" y="738.09" angle="74.99" type="DEFAULT_VEHTYPE@follower" speed="12.06" pos="27.38" lane="E2_0" slope="0.00" acceleration="0.62"/>
        <vehicle id="leader" x="618.41" y="747.01" angle="74.99" type="DEFAULT_VEHTYPE@leader" speed="12.07" pos="61.82" lane="E2_0" slope="0.00" acceleration="0.00"/>
    </timestep>
    <timestep time="5.00">
        <vehicle id="follower" x="586.30" y="738.40" angle="74.99" type="DEFAULT_VEHTYPE@follower" speed="11.94" pos="28.57" lane="E2_0" slope="0.00" acceleration="-1.20"/>
        <vehicle id="leader" x="619.58" y="747.32" angle="74.99" type="DEFAULT_VEHTYPE@leader" speed="12.07" pos="63.03" lane="E2_0" slope="0.00" acceleration="0.00"/>
    </timestep>
    <timestep time="5.10">
        <vehicle id="follower" x="587.46" y="738.71" angle="74.99" type="DEFAULT_VEHTYPE@follower" speed="12.03" pos="29.78" lane="E2_0" slope="0.00" acceleration="0.85"/>
        <vehicle id="leader" x="620.74" y="747.63" angle="74.99" type="DEFAULT_VEHTYPE@leader" speed="12.07" pos="64.23" lane="E2_0" slope="0.00" acceleration="0.00"/>
    </timestep>
    <timestep time="5.20">
        <vehicle id="follower" x="588.62" y="739.02" angle="74.99" type="DEFAULT_VEHTYPE@follower" speed="12.00" pos="30.98" lane="E2_0" slope="0.00" acceleration="-0.30"/>
        <vehicle id="leader" x="621.91" y="747.95" angle="74.99" type="DEFAULT_VEHTYPE@leader" speed="12.07" pos="65.44" lane="E2_0" slope="0.00" acceleration="0.00"/>
    </timestep>
    <timestep time="5.30">
        <vehicle id="follower" x="589.78" y="739.33" angle="74.99" type="DEFAULT_VEHTYPE@follower" speed="12.05" pos="32.18" lane="E2_0" slope="0.00" acceleration="0.50"/>
        <vehicle id="leader" x="623.08" y="748.26" angle="74.99" type="DEFAULT_VEHTYPE@leader" speed="12.07" pos="66.65" lane="E2_0" slope="0.00" acceleration="0.00"/>
    </timestep>
    <timestep time="5.40">
        <vehicle id="follower" x="590.95" y="739.65" angle="74.99" type="DEFAULT_VEHTYPE@follower" speed="12.06" pos="33.39" lane="E2_0" slope="0.00" acceleration="0.13"/>
        <vehicle id="leader" x="624.24" y="748.57" angle="74.99" type="DEFAULT_VEHTYPE@leader" speed="12.07" pos="67.86" lane="E2_0" slope="0.00" acceleration="0.00"/>
    </timestep>
    <timestep time="5.50">
        <vehicle id="follower" x="592.11" y="739.96" angle="74.99" type="DEFAULT_VEHTYPE@follower" speed="12.03" pos="34.59" lane="E2_0" slope="0.00" acceleration="-0.35"/>
        <vehicle id="leader" x="625.41" y="748.88" angle="74.99" type="DEFAULT_VEHTYPE@leader" speed="12.07" pos="69.06" lane="E2_0" slope="0.00" acceleration="0.00"/>
    </timestep>
    <timestep time="5.60">
        <vehicle id="follower" x="593.27" y="740.27" angle="74.99" type="DEFAULT_VEHTYPE@follower" speed="12.04" pos="35.80" lane="E2_0" slope="0.00" acceleration="0.18"/>
        <vehicle id="leader" x="626.57" y="749.20" angle="74.99" type="DEFAULT_VEHTYPE@leader" speed="12.07" pos="70.27" lane="E2_0" slope="0.00" acceleration="0.00"/>
    </timestep>
    <timestep time="5.70">
        <vehicle id="follower" x="594.44" y="740.58" angle="74.99" type="DEFAULT_VEHTYPE@follower" speed="12.02" pos="37.00" lane="E2_0" slope="0.00" acceleration="-0.27"/>
        <vehicle id="leader" x="627.74" y="749.51" angle="74.99" type="DEFAULT_VEHTYPE@leader" speed="12.07" pos="71.48" lane="E2_0" slope="0.00" acceleration="0.00"/>
    </timestep>
    <timestep time="5.80">
        <vehicle id="follower" x="595.60" y="740.89" angle="74.99" type="DEFAULT_VEHTYPE@follower" speed="12.02" pos="38.20" lane="E2_0" slope="0.00" acceleration="0.04"/>
        <vehicle id="leader" x="628.91" y="749.82" angle="74.99" type="DEFAULT_VEHTYPE@leader" speed="12.07" pos="72.69" lane="E2_0" slope="0.00" acceleration="0.00"/>
    </timestep>
    <timestep time="5.90">
        <vehicle id="follower" x="596.75" y="741.20" angle="74.99" type="DEFAULT_VEHTYPE@follower" speed="11.96" pos="39.40" lane="E2_0" slope="0.00" acceleration="-0.57"/>
        <vehicle id="leader" x="630.07" y="750.13" angle="74.99" type="DEFAULT_VEHTYPE@leader" speed="12.07" pos="73.89" lane="E2_0" slope="0.00" acceleration="0.00"/>
    </timestep>
    <timestep time="6.00">
        <vehicle id="follower" x="597.91" y="741.51" angle="74.99" type="DEFAULT_VEHTYPE@follower" speed="12.02" pos="40.60" lane="E2_0" slope="0.00" acceleration="0.53"/>
        <vehicle id="leader" x="631.24" y="750.45" angle="74.99" type="DEFAULT_VEHTYPE@leader" speed="12.07" pos="75.10" lane="E2_0" slope="0.00" acceleration="0.00"/>
    </timestep>
    <timestep time="6.10">
        <vehicle id="follower" x="599.07" y="741.82" angle="74.99" type="DEFAULT_VEHTYPE@follower" speed="11.95" pos="41.79" lane="E2_0" slope="0.00" acceleration="-0.73"/>
        <vehicle id="leader" x="632.40" y="750.76" angle="74.99" type="DEFAULT_VEHTYPE@leader" speed="12.07" pos="76.31" lane="E2_0" slope="0.00" acceleration="0.00"/>
    </timestep>
    <timestep time="6.20">
        <vehicle id="follower" x="600.23" y="742.13" angle="74.99" type="DEFAULT_VEHTYPE@follower" speed="12.03" pos="43.00" lane="E2_0" slope="0.00" acceleration="0.88"/>
        <vehicle id="leader" x="633.57" y="751.07" angle="74.99" type="DEFAULT_VEHTYPE@leader" speed="12.07" pos="77.51" lane="E2_0" slope="0.00" acceleration="0.00"/>
    </timestep>
    <timestep time="6.30">
        <vehicle id="follower" x="601.38" y="742.44" angle="74.99" type="DEFAULT_VEHTYPE@follower" speed="11.96" pos="44.19" lane="E2_0" slope="0.00" acceleration="-0.74"/>
        <vehicle id="leader" x="634.74" y="751.38" angle="74.99" type="DEFAULT_VEHTYPE@leader" speed="12.07" pos="78.72" lane="E2_0" slope="0.00" acceleration="0.00"/>
    </timestep>
    <timestep time="6.40">
        <vehicle id="follower" x="602.54" y="742.75" angle="74.99" type="DEFAULT_VEHTYPE@follower" speed="11.95" pos="45.39" lane="E2_0" slope="0.00" acceleration="-0.06"/>
        <vehicle id="leader" x="635.90" y="751.70" angle="74.99" type="DEFAULT_VEHTYPE@leader" speed="12.07" pos="79.93" lane="E2_0" slope="0.00" acceleration="0.00"/>
    </timestep>
    <timestep time="6.50">
        <vehicle id="follower" x="603.70" y="743.06" angle="74.99" type="DEFAULT_VEHTYPE@follower" speed="12.02" pos="46.59" lane="E2_0" slope="0.00" acceleration="0.65"/>
        <vehicle id="leader" x="637.07" y="752.01" angle="74.99" type="DEFAULT_VEHTYPE@leader" speed="12.07" pos="81.14" lane="E2_0" slope="0.00" acceleration="0.00"/>
    </timestep>
    <timestep time="6.60">
        <vehicle id="follower" x="604.86" y="743.37" angle="74.99" type="DEFAULT_VEHTYPE@follower" speed="12.01" pos="47.79" lane="E2_0" slope="0.00" acceleration="-0.04"/>
        <vehicle id="leader" x="638.23" y="752.32" angle="74.99" type="DEFAULT_VEHTYPE@leader" speed="12.07" pos="82.34" lane="E2_0" slope="0.00" acceleration="0.00"/>
    </timestep>
    <timestep time="6.70">
        <vehicle id="follower" x="606.02" y="743.68" angle="74.99" type="DEFAULT_VEHTYPE@follower" speed="12.00" pos="48.99" lane="E2_0" slope="0.00" acceleration="-0.15"/>
        <vehicle id="leader" x="639.40" y="752.63" angle="74.99" type="DEFAULT_VEHTYPE@leader" speed="12.07" pos="83.55" lane="E2_0" slope="0.00" acceleration="0.00"/>
    </timestep>
    <timestep time="6.80">
        <vehicle id="follower" x="607.18" y="744.00" angle="74.99" type="DEFAULT_VEHTYPE@follower" speed="12.03" pos="50.19" lane="E2_0" slope="0.00" acceleration="0.36"/>
        <vehicle id="leader" x="640.57" y="752.95" angle="74.99" type="DEFAULT_VEHTYPE@leader" speed="12.07" pos="84.76" lane="E2_0" slope="0.00" acceleration="0.00"/>
    </timestep>
    <timestep time="6.90">
        <vehicle id="follower" x="608.34" y="744.31" angle="74.99" type="DEFAULT_VEHTYPE@follower" speed="12.03" pos="51.39" lane="E2_0" slope="0.00" acceleration="-0.06"/>
        <vehicle id="leader" x="641.73" y="753.26" angle="74.99" type="DEFAULT_VEHTYPE@leader" speed="12.07" pos="85.96" lane="E2_0" slope="0.00" acceleration="0.00"/>
    </timestep>
    <timestep time="7.00">
        <vehicle id="follower" x="609.51" y="744.62" angle="74.99" type="DEFAULT_VEHTYPE@follower" speed="12.06" pos="52.60" lane="E2_0" slope="0.00" acceleration="0.31"/>
        <vehicle id="leader" x="642.90" y="753.57" angle="74.99" type="DEFAULT_VEHTYPE@leader" speed="12.07" pos="87.17" lane="E2_0" slope="0.00" acceleration="0.00"/>
    </timestep>
    <timestep time="7.10">
        <vehicle id="follower" x="610.66" y="744.93" angle="74.99" type="DEFAULT_VEHTYPE@follower" speed="11.99" pos="53.80" lane="E2_0" slope="0.00" acceleration="-0.73"/>
        <vehicle id="leader" x="644.06" y="753.88" angle="74.99" type="DEFAULT_VEHTYPE@leader" speed="12.07" pos="88.38" lane="E2_0" slope="0.00" acceleration="0.00"/>
    </timestep>
    <timestep time="7.20">
        <vehicle id="follower" x="611.83" y="745.24" angle="74.99" type="DEFAULT_VEHTYPE@follower" speed="12.04" pos="55.00" lane="E2_0" slope="0.00" acceleration="0.49"/>
        <vehicle id="leader" x="645.23" y="754.20" angle="74.99" type="DEFAULT_VEHTYPE@leader" speed="12.07" pos="89.59" lane="E2_0" slope="0.00" acceleration="0.00"/>
    </timestep>
    <timestep time="7.30">
        <vehicle id="follower" x="612.99" y="745.55" angle="74.99" type="DEFAULT_VEHTYPE@follower" speed="12.06" pos="56.21" lane="E2_0" slope="0.00" acceleration="0.20"/>
        <vehicle id="leader" x="646.40" y="754.51" angle="74.99" type="DEFAULT_VEHTYPE@leader" speed="12.07" pos="90.79" lane="E2_0" slope="0.00" acceleration="0.00"/>
    </timestep>
    <timestep time="7.40">
        <vehicle id="follower" x="614.16" y="745.87" angle="74.99" type="DEFAULT_VEHTYPE@follower" speed="12.05" pos="57.41" lane="E2_0" slope="0.00" acceleration="-0.02"/>
        <vehicle id="leader" x="647.56" y="754.82" angle="74.99" type="DEFAULT_VEHTYPE@leader" speed="12.07" pos="92.00" lane="E2_0" slope="0.00" acceleration="0.00"/>
    </timestep>
    <timestep time="7.50">
        <vehicle id="follower" x="615.32" y="746.18" angle="74.99" type="DEFAULT_VEHTYPE@follower" speed="12.02" pos="58.62" lane="E2_0" slope="0.00" acceleration="-0.30"/>
        <vehicle id="leader" x="648.73" y="755.13" angle="74.99" type="DEFAULT_VEHTYPE@leader" speed="12.07" pos="93.21" lane="E2_0" slope="0.00" acceleration="0.00"/>
    </timestep>
    <timestep time="7.60">
        <vehicle id="follower" x="616.48" y="746.49" angle="74.99" type="DEFAULT_VEHTYPE@follower" speed="12.07" pos="59.82" lane="E2_0" slope="0.00" acceleration="0.43"/>
        <vehicle id="leader" x="649.89" y="755.45" angle="74.99" type="DEFAULT_VEHTYPE@leader" speed="12.07" pos="94.41" lane="E2_0" slope="0.00" acceleration="0.00"/>
    </timestep>
    <timestep time="7.70">
        <vehicle id="follower" x="617.64" y="746.80" angle="74.99" type="DEFAULT_VEHTYPE@follower" speed="11.98" pos="61.02" lane="E2_0" slope="0.00" acceleration="-0.82"/>
        <vehicle id="leader" x="651.06" y="755.76" angle="74.99" type="DEFAULT_VEHTYPE@leader" speed="12.07" pos="95.62" lane="E2_0" slope="0.00" acceleration="0.00"/>
    </timestep>
    <timestep time="7.80">
        <vehicle id="follower" x="618.80" y="747.11" angle="74.99" type="DEFAULT_VEHTYPE@follower" speed="11.96" pos="62.22" lane="E2_0" slope="0.00" acceleration="-0.22"/>
        <vehicle id="leader" x="652.23" y="756.07" angle="74.99" type="DEFAULT_VEHTYPE@leader" speed="12.07" pos="96.83" lane="E2_0" slope="0.00" acceleration="0.00"/>
    </timestep>
    <timestep time="7.90">
        <vehicle id="follower" x="619.95" y="747.42" angle="74.99" type="DEFAULT_VEHTYPE@follower" speed="11.95" pos="63.41" lane="E2_0" slope="0.00" acceleration="-0.08"/>
        <vehicle id="leader" x="653.39" y="756.39" angle="74.99" type="DEFAULT_VEHTYPE@leader" speed="12.07" pos="98.04" lane="E2_0" slope="0.00" acceleration="0.00"/>
    </timestep>
    <timestep time="8.00">
        <vehicle id="follower" x="621.11" y="747.73" angle="74.99" type="DEFAULT_VEHTYPE@follower" speed="11.99" pos="64.61" lane="E2_0" slope="0.00" acceleration="0.31"/>
        <vehicle id="leader" x="654.56" y="756.70" angle="74.99" type="DEFAULT_VEHTYPE@leader" speed="12.07" pos="99.24" lane="E2_0" slope="0.00" acceleration="0.00"/>
    </timestep>
    <timestep time="8.10">
        <vehicle id="follower" x="622.27" y="748.04" angle="74.99" type="DEFAULT_VEHTYPE@follower" speed="12.00" pos="65.81" lane="E2_0" slope="0.00" acceleration="0.10"/>
        <vehicle id="leader" x="655.72" y="757.01" angle="74.99" type="DEFAULT_VEHTYPE@leader" speed="12.07" pos="100.45" lane="E2_0" slope="0.00" acceleration="0.00"/>
    </timestep>
    <timestep time="8.20">
        <vehicle id="follower" x="623.43" y="748.35" angle="74.99" type="DEFAULT_VEHTYPE@follower" speed="12.02" pos="67.01" lane="E2_0" slope="0.00" acceleration="0.27"/>
        <vehicle id="leader" x="656.89" y="757.32" angle="74.99" type="DEFAULT_VEHTYPE@leader" speed="12.07" pos="101.66" lane="E2_0" slope="0.00" acceleration="0.00"/>
    </timestep>
    <timestep time="8.30">
        <vehicle id="follower" x="624.59" y="748.66" angle="74.99" type="DEFAULT_VEHTYPE@follower" speed="11.99" pos="68.21" lane="E2_0" slope="0.00" acceleration="-0.28"/>
        <vehicle id="leader" x="658.06" y="757.64" angle="74.99" type="DEFAULT_VEHTYPE@leader" speed="12.07" pos="102.87" lane="E2_0" slope="0.00" acceleration="0.00"/>
    </timestep>
    <timestep time="8.40">
        <vehicle id="follower" x="625.75" y="748.98" angle="74.99" type="DEFAULT_VEHTYPE@follower" speed="12.06" pos="69.42" lane="E2_0" slope="0.00" acceleration="0.64"/>
        <vehicle id="leader" x="659.22" y="757.95" angle="74.99" type="DEFAULT_VEHTYPE@leader" speed="12.07" pos="104.07" lane="E2_0" slope="0.00" acceleration="0.00"/>
    </timestep>
    <timestep time="8.50">
        <vehicle id="follower" x="626.91" y="749.29" angle="74.99" type="DEFAULT_VEHTYPE@follower" speed="11.99" pos="70.62" lane="E2_0" slope="0.00" acceleration="-0.70"/>
        <vehicle id="leader" x="660.39" y="758.26" angle="74.99" type="DEFAULT_VEHTYPE@leader" speed="12.07" pos="105.28" lane="E2_0" slope="0.00" acceleration="0.00"/>
    </timestep>
    <timestep time="8.60">
        <vehicle id="follower" x="628.06" y="749.59" angle="74.99" type="DEFAULT_VEHTYPE@follower" speed="11.95" pos="71.81" lane="E2_0" slope="0.00" acceleration="-0.39"/>
        <vehicle id="leader" x="661.56" y="758.57" angle="74.99" type="DEFAULT_VEHTYPE@leader" speed="12.07" pos="106.49" lane="E2_0" slope="0.00" acceleration="0.00"/>
    </timestep>
    <timestep time="8.70">
        <vehicle id="follower" x="629.23" y="749.91" angle="74.99" type="DEFAULT_VEHTYPE@follower" speed="12.07" pos="73.02" lane="E2_0" slope="0.00" acceleration="1.21"/>
        <vehicle id="leader" x="662.72" y="758.89" angle="74.99" type="DEFAULT_VEHTYPE@leader" speed="12.07" pos="107.69" lane="E2_0" slope="0.00" acceleration="0.00"/>
    </timestep>
    <timestep time="8.80">
        <vehicle id="follower" x="630.38" y="750.22" angle="74.99" type="DEFAULT_VEHTYPE@follower" speed="11.96" pos="74.22" lane="E2_0" slope="0.00" acceleration="-1.13"/>
        <vehicle id="leader" x="663.89" y="759.20" angle="74.99" type="DEFAULT_VEHTYPE@leader" speed="12.07" pos="108.90" lane="E2_0" slope="0.00" acceleration="0.00"/>
    </timestep>
    <timestep time="8.90">