<?xml version="1.0" encoding="UTF-8"?>

<!-- generated on 2023-04-04 14:22:38 by Eclipse SUMO sumo Version 1.16.0
<configuration xmlns:xsi="http://www.w3.org/2001/XMLSchema-instance" xsi:noNamespaceSchemaLocation="http://sumo.dlr.de/xsd/sumoConfiguration.xsd">

    <input>
        <net-file value="c:\Users\aryak\Projects\cf-sumo\sumo-xml\net.net.xml"/>
    </input>

    <output>
        <fcd-output value="c:\Users\aryak\Projects\cf-sumo\sumo-xml\output\802_fcd.xml"/>
        <fcd-output.acceleration value="true"/>
    </output>

    <time>
        <step-length value="0.1"/>
    </time>

    <report>
        <no-step-log value="true"/>
    </report>

    <traci_server>
        <remote-port value="50285"/>
    </traci_server>

</configuration>
-->

<fcd-export xmlns:xsi="http://www.w3.org/2001/XMLSchema-instance" xsi:noNamespaceSchemaLocation="http://sumo.dlr.de/xsd/fcd_file.xsd">
    <timestep time="0.00">
        <vehicle id="leader" x="563.63" y="732.32" angle="74.99" type="DEFAULT_VEHTYPE@leader" speed="10.35" pos="5.10" lane="E2_0" slope="0.00" acceleration="0.00"/>
    </timestep>
    <timestep time="0.10">
        <vehicle id="leader" x="564.65" y="732.59" angle="74.99" type="DEFAULT_VEHTYPE@leader" speed="10.55" pos="6.15" lane="E2_0" slope="0.00" acceleration="2.00"/>
    </timestep>
    <timestep time="0.20">
        <vehicle id="leader" x="565.67" y="732.87" angle="74.99" type="DEFAULT_VEHTYPE@leader" speed="10.63" pos="7.22" lane="E2_0" slope="0.00" acceleration="0.80"/>
    </timestep>
    <timestep time="0.30">
        <vehicle id="leader" x="566.69" y="733.14" angle="74.99" type="DEFAULT_VEHTYPE@leader" speed="10.53" pos="8.27" lane="E2_0" slope="0.00" acceleration="-1.00"/>
    </timestep>
    <timestep time="0.40">
        <vehicle id="leader" x="567.70" y="733.41" angle="74.99" type="DEFAULT_VEHTYPE@leader" speed="10.48" pos="9.32" lane="E2_0" slope="0.00" acceleration="-0.50"/>
    </timestep>
    <timestep time="0.50">
        <vehicle id="leader" x="568.73" y="733.69" angle="74.99" type="DEFAULT_VEHTYPE@leader" speed="10.66" pos="10.39" lane="E2_0" slope="0.00" acceleration="1.80"/>
    </timestep>
    <timestep time="0.60">
        <vehicle id="leader" x="569.77" y="733.97" angle="74.99" type="DEFAULT_VEHTYPE@leader" speed="10.78" pos="11.46" lane="E2_0" slope="0.00" acceleration="1.20"/>
    </timestep>
    <timestep time="0.70">
        <vehicle id="leader" x="570.81" y="734.25" angle="74.99" type="DEFAULT_VEHTYPE@leader" speed="10.78" pos="12.54" lane="E2_0" slope="0.00" acceleration="0.00"/>
    </timestep>
    <timestep time="0.80">
        <vehicle id="leader" x="571.85" y="734.53" angle="74.99" type="DEFAULT_VEHTYPE@leader" speed="10.78" pos="13.62" lane="E2_0" slope="0.00" acceleration="0.00"/>
    </timestep>
    <timestep time="0.90">
        <vehicle id="leader" x="572.90" y="734.81" angle="74.99" type="DEFAULT_VEHTYPE@leader" speed="10.82" pos="14.70" lane="E2_0" slope="0.00" acceleration="0.40"/>
    </timestep>
    <timestep time="1.00">
        <vehicle id="leader" x="573.94" y="735.09" angle="74.99" type="DEFAULT_VEHTYPE@leader" speed="10.82" pos="15.78" lane="E2_0" slope="0.00" acceleration="0.00"/>
    </timestep>
    <timestep time="1.10">
        <vehicle id="leader" x="574.99" y="735.37" angle="74.99" type="DEFAULT_VEHTYPE@leader" speed="10.82" pos="16.87" lane="E2_0" slope="0.00" acceleration="0.00"/>
    </timestep>
    <timestep time="1.20">
        <vehicle id="leader" x="576.03" y="735.65" angle="74.99" type="DEFAULT_VEHTYPE@leader" speed="10.82" pos="17.95" lane="E2_0" slope="0.00" acceleration="0.00"/>
    </timestep>
    <timestep time="1.30">
        <vehicle id="leader" x="577.10" y="735.93" angle="74.99" type="DEFAULT_VEHTYPE@leader" speed="11.07" pos="19.05" lane="E2_0" slope="0.00" acceleration="2.50"/>
    </timestep>
    <timestep time="1.40">
        <vehicle id="leader" x="578.18" y="736.22" angle="74.99" type="DEFAULT_VEHTYPE@leader" speed="11.16" pos="20.17" lane="E2_0" slope="0.00" acceleration="0.90"/>
    </timestep>
    <timestep time="1.50">
        <vehicle id="leader" x="579.26" y="736.51" angle="74.99" type="DEFAULT_VEHTYPE@leader" speed="11.19" pos="21.29" lane="E2_0" slope="0.00" acceleration="0.30"/>
    </timestep>
    <timestep time="1.60">
        <vehicle id="leader" x="580.35" y="736.80" angle="74.99" type="DEFAULT_VEHTYPE@leader" speed="11.27" pos="22.42" lane="E2_0" slope="0.00" acceleration="0.80"/>
    </timestep>
    <timestep time="1.70">
        <vehicle id="leader" x="581.44" y="737.10" angle="74.99" type="DEFAULT_VEHTYPE@leader" speed="11.27" pos="23.54" lane="E2_0" slope="0.00" acceleration="0.00"/>
    </timestep>
    <timestep time="1.80">
        <vehicle id="leader" x="582.53" y="737.39" angle="74.99" type="DEFAULT_VEHTYPE@leader" speed="11.27" pos="24.67" lane="E2_0" slope="0.00" acceleration="0.00"/>
    </timestep>
    <timestep time="1.90">
        <vehicle id="leader" x="583.64" y="737.68" angle="74.99" type="DEFAULT_VEHTYPE@leader" speed="11.46" pos="25.82" lane="E2_0" slope="0.00" acceleration="1.90"/>
    </timestep>
    <timestep time="2.00">
        <vehicle id="leader" x="584.75" y="737.98" angle="74.99" type="DEFAULT_VEHTYPE@leader" speed="11.51" pos="26.97" lane="E2_0" slope="0.00" acceleration="0.50"/>
    </timestep>
    <timestep time="2.10">
        <vehicle id="leader" x="585.87" y="738.28" angle="74.99" type="DEFAULT_VEHTYPE@leader" speed="11.63" pos="28.13" lane="E2_0" slope="0.00" acceleration="1.20"/>
    </timestep>
    <timestep time="2.20">
        <vehicle id="leader" x="587.01" y="738.59" angle="74.99" type="DEFAULT_VEHTYPE@leader" speed="11.76" pos="29.31" lane="E2_0" slope="0.00" acceleration="1.30"/>
    </timestep>
    <timestep time="2.30">
        <vehicle id="leader" x="588.15" y="738.89" angle="74.99" type="DEFAULT_VEHTYPE@leader" speed="11.82" pos="30.49" lane="E2_0" slope="0.00" acceleration="0.60"/>
    </timestep>
    <timestep time="2.40">
        <vehicle id="leader" x="589.29" y="739.20" angle="74.99" type="DEFAULT_VEHTYPE@leader" speed="11.82" pos="31.67" lane="E2_0" slope="0.00" acceleration="0.00"/>
    </timestep>
    <timestep time="2.50">
        <vehicle id="leader" x="590.43" y="739.51" angle="74.99" type="DEFAULT_VEHTYPE@leader" speed="11.84" pos="32.85" lane="E2_0" slope="0.00" acceleration="0.20"/>
    </timestep>
    <timestep time="2.60">
        <vehicle id="leader" x="591.60" y="739.82" angle="74.99" type="DEFAULT_VEHTYPE@leader" speed="12.04" pos="34.06" lane="E2_0" slope="0.00" acceleration="2.00"/>
    </timestep>
    <timestep time="2.70">
        <vehicle id="leader" x="592.76" y="740.13" angle="74.99" type="DEFAULT_VEHTYPE@leader" speed="12.04" pos="35.26" lane="E2_0" slope="0.00" acceleration="0.00"/>
    </timestep>
    <timestep time="2.80">
        <vehicle id="leader" x="593.94" y="740.45" angle="74.99" type="DEFAULT_VEHTYPE@leader" speed="12.19" pos="36.48" lane="E2_0" slope="0.00" acceleration="1.50"/>
    </timestep>
    <timestep time="2.90">
        <vehicle id="leader" x="595.13" y="740.77" angle="74.99" type="DEFAULT_VEHTYPE@leader" speed="12.37" pos="37.72" lane="E2_0" slope="0.00" acceleration="1.80"/>
    </timestep>
    <timestep time="3.00">
        <vehicle id="follower" x="563.63" y="732.32" angle="74.99" type="DEFAULT_VEHTYPE@follower" speed="10.35" pos="5.10" lane="E2_0" slope="0.00" acceleration="0.00"/>
        <vehicle id="leader" x="596.33" y="741.09" angle="74.99" type="DEFAULT_VEHTYPE@leader" speed="12.37" pos="38.95" lane="E2_0" slope="0.00" acceleration="0.00"/>
    </timestep>
    <timestep time="3.10">
        <vehicle id="follower" x="564.65" y="732.60" angle="74.99" type="DEFAULT_VEHTYPE@follower" speed="10.60" pos="6.16" lane="E2_0" slope="0.00" acceleration="2.55"/>
        <vehicle id="leader" x="597.52" y="741.41" angle="74.99" type="DEFAULT_VEHTYPE@leader" speed="12.37" pos="40.19" lane="E2_0" slope="0.00" acceleration="0.00"/>
    </timestep>
    <timestep time="3.20">
        <vehicle id="follower" x="565.70" y="732.88" angle="74.99" type="DEFAULT_VEHTYPE@follower" speed="10.88" pos="7.25" lane="E2_0" slope="0.00" acceleration="2.76"/>
        <vehicle id="leader" x="598.72" y="741.73" angle="74.99" type="DEFAULT_VEHTYPE@leader" speed="12.37" pos="41.43" lane="E2_0" slope="0.00" acceleration="0.00"/>
    </timestep>
    <timestep time="3.30">
        <vehicle id="follower" x="566.77" y="733.16" angle="74.99" type="DEFAULT_VEHTYPE@follower" speed="11.02" pos="8.35" lane="E2_0" slope="0.00" acceleration="1.42"/>
        <vehicle id="leader" x="599.91" y="742.05" angle="74.99" type="DEFAULT_VEHTYPE@leader" speed="12.37" pos="42.67" lane="E2_0" slope="0.00" acceleration="0.00"/>
    </timestep>
    <timestep time="3.40">
        <vehicle id="follower" x="567.83" y="733.45" angle="74.99" type="DEFAULT_VEHTYPE@follower" speed="11.00" pos="9.45" lane="E2_0" slope="0.00" acceleration="-0.23"/>
        <vehicle id="leader" x="601.11" y="742.37" angle="74.99" type="DEFAULT_VEHTYPE@leader" speed="12.37" pos="43.90" lane="E2_0" slope="0.00" acceleration="0.00"/>
    </timestep>
    <timestep time="3.50">
        <vehicle id="follower" x="568.90" y="733.73" angle="74.99" type="DEFAULT_VEHTYPE@follower" speed="11.05" pos="10.56" lane="E2_0" slope="0.00" acceleration="0.53"/>
        <vehicle id="leader" x="602.31" y="742.69" angle="74.99" type="DEFAULT_VEHTYPE@leader" speed="12.45" pos="45.15" lane="E2_0" slope="0.00" acceleration="0.80"/>
    </timestep>
    <timestep time="3.60">
        <vehicle id="follower" x="569.96" y="734.02" angle="74.99" type="DEFAULT_VEHTYPE@follower" speed="10.98" pos="11.65" lane="E2_0" slope="0.00" acceleration="-0.68"/>
        <vehicle id="leader" x="603.52" y="743.02" angle="74.99" type="DEFAULT_VEHTYPE@leader" speed="12.56" pos="46.40" lane="E2_0" slope="0.00" acceleration="1.10"/>
    </timestep>
    <timestep time="3.70">
        <vehicle id="follower" x="571.04" y="734.31" angle="74.99" type="DEFAULT_VEHTYPE@follower" speed="11.17" pos="12.77" lane="E2_0" slope="0.00" acceleration="1.85"/>
        <vehicle id="leader" x="604.75" y="743.34" angle="74.99" type="DEFAULT_VEHTYPE@leader" speed="12.68" pos="47.67" lane="E2_0" slope="0.00" acceleration="1.20"/>
    </timestep>
    <timestep time="3.80">
        <vehicle id="follower" x="572.12" y="734.60" angle="74.99" type="DEFAULT_VEHTYPE@follower" speed="11.20" pos="13.89" lane="E2_0" slope="0.00" acceleration="0.26"/>
        <vehicle id="leader" x="606.00" y="743.68" angle="74.99" type="DEFAULT_VEHTYPE@leader" speed="12.93" pos="48.97" lane="E2_0" slope="0.00" acceleration="2.50"/>
    </timestep>
    <timestep time="3.90">
        <vehicle id="follower" x="573.21" y="734.89" angle="74.99" type="DEFAULT_VEHTYPE@follower" speed="11.30" pos="15.02" lane="E2_0" slope="0.00" acceleration="1.04"/>
        <vehicle id="leader" x="607.24" y="744.01" angle="74.99" type="DEFAULT_VEHTYPE@leader" speed="12.93" pos="50.26" lane="E2_0" slope="0.00" acceleration="0.00"/>
    </timestep>
    <timestep time="4.00">
        <vehicle id="follower" x="574.30" y="735.18" angle="74.99" type="DEFAULT_VEHTYPE@follower" speed="11.35" pos="16.16" lane="E2_0" slope="0.00" acceleration="0.48"/>
        <vehicle id="leader" x="608.50" y="744.35" angle="74.99" type="DEFAULT_VEHTYPE@leader" speed="13.03" pos="51.56" lane="E2_0" slope="0.00" acceleration="1.00"/>
    </timestep>
    <timestep time="4.10">
        <vehicle id="follower" x="575.41" y="735.48" angle="74.99" type="DEFAULT_VEHTYPE@follower" speed="11.43" pos="17.30" lane="E2_0" slope="0.00" acceleration="0.82"/>
        <vehicle id="leader" x="609.77" y="744.69" angle="74.99" type="DEFAULT_VEHTYPE@leader" speed="13.11" pos="52.87" lane="E2_0" slope="0.00" acceleration="0.80"/>
    </timestep>
    <timestep time="4.20">
        <vehicle id="follower" x="576.51" y="735.78" angle="74.99" type="DEFAULT_VEHTYPE@follower" speed="11.44" pos="18.44" lane="E2_0" slope="0.00" acceleration="0.12"/>
        <vehicle id="leader" x="611.06" y="745.04" angle="74.99" type="DEFAULT_VEHTYPE@leader" speed="13.35" pos="54.21" lane="E2_0" slope="0.00" acceleration="2.40"/>
    </timestep>
    <timestep time="4.30">
        <vehicle id="follower" x="577.64" y="736.08" angle="74.99" type="DEFAULT_VEHTYPE@follower" speed="11.67" pos="19.61" lane="E2_0" slope="0.00" acceleration="2.34"/>
        <vehicle id="leader" x="612.37" y="745.39" angle="74.99" type="DEFAULT_VEHTYPE@leader" speed="13.53" pos="55.56" lane="E2_0" slope="0.00" acceleration="1.80"/>
    </timestep>
    <timestep time="4.40">
        <vehicle id="follower" x="578.78" y="736.38" angle="74.99" type="DEFAULT_VEHTYPE@follower" speed="11.74" pos="20.78" lane="E2_0" slope="0.00" acceleration="0.70"/>
        <vehicle id="leader" x="613.70" y="745.74" angle="74.99" type="DEFAULT_VEHTYPE@leader" speed="13.83" pos="56.94" lane="E2_0" slope="0.00" acceleration="3.00"/>
    </timestep>
    <timestep time="4.50">
        <vehicle id="follower" x="579.92" y="736.69" angle="74.99" type="DEFAULT_VEHTYPE@follower" speed="11.86" pos="21.97" lane="E2_0" slope="0.00" acceleration="1.16"/>
        <vehicle id="leader" x="615.06" y="746.11" angle="74.99" type="DEFAULT_VEHTYPE@leader" speed="14.10" pos="58.35" lane="E2_0" slope="0.00" acceleration="2.70"/>
    </timestep>
    <timestep time="4.60">
        <vehicle id="follower" x="581.09" y="737.00" angle="74.99" type="DEFAULT_VEHTYPE@follower" speed="12.06" pos="23.18" lane="E2_0" slope="0.00" acceleration="2.04"/>
        <vehicle id="leader" x="616.45" y="746.48" angle="74.99" type="DEFAULT_VEHTYPE@leader" speed="14.36" pos="59.79" lane="E2_0" slope="0.00" acceleration="2.60"/>
    </timestep>
    <timestep time="4.70">
        <vehicle id="follower" x="582.28" y="737.32" angle="74.99" type="DEFAULT_VEHTYPE@follower" speed="12.32" pos="24.41" lane="E2_0" slope="0.00" acceleration="2.52"/>
        <vehicle id="leader" x="617.84" y="746.85" angle="74.99" type="DEFAULT_VEHTYPE@leader" speed="14.42" pos="61.23" lane="E2_0" slope="0.00" acceleration="0.60"/>
    </timestep>
    <timestep time="4.80">
        <vehicle id="follower" x="583.46" y="737.64" angle="74.99" type="DEFAULT_VEHTYPE@follower" speed="12.30" pos="25.64" lane="E2_0" slope="0.00" acceleration="-0.18"/>
        <vehicle id="leader" x="619.25" y="747.23" angle="74.99" type="DEFAULT_VEHTYPE@leader" speed="14.58" pos="62.69" lane="E2_0" slope="0.00" acceleration="1.60"/>
    </timestep>
    <timestep time="4.90">
        <vehicle id="follower" x="584.67" y="737.96" angle="74.99" type="DEFAULT_VEHTYPE@follower" speed="12.48" pos="26.89" lane="E2_0" slope="0.00" acceleration="1.83"/>
        <vehicle id="leader" x="620.66" y="747.61" angle="74.99" type="DEFAULT_VEHTYPE@leader" speed="14.63" pos="64.15" lane="E2_0" slope="0.00" acceleration="0.50"/>
    </timestep>
    <timestep time="5.00">
        <vehicle id="follower" x="585.87" y="738.28" angle="74.99" type="DEFAULT_VEHTYPE@follower" speed="12.40" pos="28.13" lane="E2_0" slope="0.00" acceleration="-0.83"/>
        <vehicle id="leader" x="622.09" y="747.99" angle="74.99" type="DEFAULT_VEHTYPE@leader" speed="14.73" pos="65.62" lane="E2_0" slope="0.00" acceleration="1.00"/>
    </timestep>
    <timestep time="5.10">
        <vehicle id="follower" x="587.08" y="738.61" angle="74.99" type="DEFAULT_VEHTYPE@follower" speed="12.58" pos="29.38" lane="E2_0" slope="0.00" acceleration="1.80"/>
        <vehicle id="leader" x="623.51" y="748.37" angle="74.99" type="DEFAULT_VEHTYPE@leader" speed="14.73" pos="67.10" lane="E2_0" slope="0.00" acceleration="0.00"/>
    </timestep>
    <timestep time="5.20">
        <vehicle id="follower" x="588.30" y="738.93" angle="74.99" type="DEFAULT_VEHTYPE@follower" speed="12.58" pos="30.64" lane="E2_0" slope="0.00" acceleration="-0.02"/>
        <vehicle id="leader" x="624.94" y="748.76" angle="74.99" type="DEFAULT_VEHTYPE@leader" speed="14.81" pos="68.58" lane="E2_0" slope="0.00" acceleration="0.80"/>
    </timestep>
    <timestep time="5.30">
        <vehicle id="follower" x="589.52" y="739.26" angle="74.99" type="DEFAULT_VEHTYPE@follower" speed="12.71" pos="31.91" lane="E2_0" slope="0.00" acceleration="1.29"/>
        <vehicle id="leader" x="626.38" y="749.14" angle="74.99" type="DEFAULT_VEHTYPE@leader" speed="14.88" pos="70.07" lane="E2_0" slope="0.00" acceleration="0.70"/>
    </timestep>
    <timestep time="5.40">
        <vehicle id="follower" x="590.76" y="739.59" angle="74.99" type="DEFAULT_VEHTYPE@follower" speed="12.79" pos="33.19" lane="E2_0" slope="0.00" acceleration="0.80"/>
        <vehicle id="leader" x="627.83" y="749.53" angle="74.99" type="DEFAULT_VEHTYPE@leader" speed="15.02" pos="71.57" lane="E2_0" slope="0.00" acceleration="1.40"/>
    </timestep>
    <timestep time="5.50">
        <vehicle id="follower" x="592.00" y="739.93" angle="74.99" type="DEFAULT_VEHTYPE@follower" speed="12.84" pos="34.48" lane="E2_0" slope="0.00" acceleration="0.59"/>
        <vehicle id="leader" x="629.28" y="749.92" angle="74.99" type="DEFAULT_VEHTYPE@leader" speed="14.99" pos="73.07" lane="E2_0" slope="0.00" acceleration="-0.30"/>
    </timestep>
    <timestep time="5.60">
        <vehicle id="follower" x="593.24" y="740.26" angle="74.99" type="DEFAULT_VEHTYPE@follower" speed="12.88" pos="35.76" lane="E2_0" slope="0.00" acceleration="0.38"/>
        <vehicle id="leader" x="630.73" y="750.31" angle="74.99" type="DEFAULT_VEHTYPE@leader" speed="15.06" pos="74.57" lane="E2_0" slope="0.00" acceleration="0.70"/>
    </timestep>
    <timestep time="5.70">
        <vehicle id="follower" x="594.49" y="740.60" angle="74.99" type="DEFAULT_VEHTYPE@follower" speed="12.92" pos="37.06" lane="E2_0" slope="0.00" acceleration="0.34"/>
        <vehicle id="leader" x="632.20" y="750.70" angle="74.99" type="DEFAULT_VEHTYPE@leader" speed="15.22" pos="76.10" lane="E2_0" slope="0.00" acceleration="1.60"/>
    </timestep>
    <timestep time="5.80">
        <vehicle id="follower" x="595.75" y="740.93" angle="74.99" type="DEFAULT_VEHTYPE@follower" speed="13.03" pos="38.36" lane="E2_0" slope="0.00" acceleration="1.14"/>
        <vehicle id="leader" x="633.67" y="751.10" angle="74.99" type="DEFAULT_VEHTYPE@leader" speed="15.16" pos="77.61" lane="E2_0" slope="0.00" acceleration="-0.60"/>
    </timestep>
    <timestep time="5.90">
        <vehicle id="follower" x="597.00" y="741.27" angle="74.99" type="DEFAULT_VEHTYPE@follower" speed="12.97" pos="39.66" lane="E2_0" slope="0.00" acceleration="-0.63"/>
        <vehicle id="leader" x="635.13" y="751.49" angle="74.99" type="DEFAULT_VEHTYPE@leader" speed="15.16" pos="79.13" lane="E2_0" slope="0.00" acceleration="0.00"/>
    </timestep>
    <timestep time="6.00">
        <vehicle id="follower" x="598.26" y="741.61" angle="74.99" type="DEFAULT_VEHTYPE@follower" speed="13.06" pos="40.96" lane="E2_0" slope="0.00" acceleration="0.93"/>
        <vehicle id="leader" x="636.58" y="751.88" angle="74.99" type="DEFAULT_VEHTYPE@leader" speed="15.06" pos="80.63" lane="E2_0" slope="0.00" acceleration="-1.00"/>
    </timestep>
    <timestep time="6.10">
        <vehicle id="follower" x="599.52" y="741.94" angle="74.99" type="DEFAULT_VEHTYPE@follower" speed="12.96" pos="42.26" lane="E2_0" slope="0.00" acceleration="-1.03"/>
        <vehicle id="leader" x="638.04" y="752.27" angle="74.99" type="DEFAULT_VEHTYPE@leader" speed="15.12" pos="82.15" lane="E2_0" slope="0.00" acceleration="0.60"/>
    </timestep>
    <timestep time="6.20">
        <vehicle id="follower" x="600.78" y="742.28" angle="74.99" type="DEFAULT_VEHTYPE@follower" speed="13.12" pos="43.57" lane="E2_0" slope="0.00" acceleration="1.61"/>
        <vehicle id="leader" x="639.51" y="752.66" angle="74.99" type="DEFAULT_VEHTYPE@leader" speed="15.16" pos="83.66" lane="E2_0" slope="0.00" acceleration="0.40"/>
    </timestep>
    <timestep time="6.30">
        <vehicle id="follower" x="602.05" y="742.62" angle="74.99" type="DEFAULT_VEHTYPE@follower" speed="13.08" pos="44.88" lane="E2_0" slope="0.00" acceleration="-0.38"/>
        <vehicle id="leader" x="641.00" y="753.06" angle="74.99" type="DEFAULT_VEHTYPE@leader" speed="15.40" pos="85.20" lane="E2_0" slope="0.00" acceleration="2.40"/>
    </timestep>
    <timestep time="6.40">
        <vehicle id="follower" x="603.32" y="742.96" angle="74.99" type="DEFAULT_VEHTYPE@follower" speed="13.22" pos="46.20" lane="E2_0" slope="0.00" acceleration="1.40"/>
        <vehicle id="leader" x="642.51" y="753.47" angle="74.99" type="DEFAULT_VEHTYPE@leader" speed="15.63" pos="86.77" lane="E2_0" slope="0.00" acceleration="2.30"/>
    </timestep>
    <timestep time="6.50">
        <vehicle id="follower" x="604.62" y="743.31" angle="74.99" type="DEFAULT_VEHTYPE@follower" speed="13.44" pos="47.54" lane="E2_0" slope="0.00" acceleration="2.20"/>
        <vehicle id="leader" x="644.03" y="753.87" angle="74.99" type="DEFAULT_VEHTYPE@leader" speed="15.74" pos="88.34" lane="E2_0" slope="0.00" acceleration="1.10"/>
    </timestep>
    <timestep time="6.60">
        <vehicle id="follower" x="605.93" y="743.66" angle="74.99" type="DEFAULT_VEHTYPE@follower" speed="13.52" pos="48.90" lane="E2_0" slope="0.00" acceleration="0.80"/>
        <vehicle id="leader" x="645.55" y="754.28" angle="74.99" type="DEFAULT_VEHTYPE@leader" speed="15.76" pos="89.92" lane="E2_0" slope="0.00" acceleration="0.20"/>
    </timestep>
    <timestep time="6.70">
        <vehicle id="follower" x="607.24" y="744.01" angle="74.99" type="DEFAULT_VEHTYPE@follower" speed="13.54" pos="50.25" lane="E2_0" slope="0.00" acceleration="0.23"/>
        <vehicle id="leader" x="647.08" y="754.69" angle="74.99" type="DEFAULT_VEHTYPE@leader" speed="15.87" pos="91.50" lane="E2_0" slope="0.00" acceleration="1.10"/>
    </timestep>
    <timestep time="6.80">
        <vehicle id="follower" x="608.56" y="744.37" angle="74.99" type="DEFAULT_VEHTYPE@follower" speed="13.67" pos="51.62" lane="E2_0" slope="0.00" acceleration="1.28"/>
        <vehicle id="leader" x="648.62" y="755.10" angle="74.99" type="DEFAULT_VEHTYPE@leader" speed="15.90" pos="93.09" lane="E2_0" slope="0.00" acceleration="0.30"/>
    </timestep>
    <timestep time="6.90">
        <vehicle id="follower" x="609.88" y="744.72" angle="74.99" type="DEFAULT_VEHTYPE@follower" speed="13.71" pos="52.99" lane="E2_0" slope="0.00" acceleration="0.39"/>
        <vehicle id="leader" x="650.17" y="755.52" angle="74.99" type="DEFAULT_VEHTYPE@leader" speed="16.11" pos="94.70" lane="E2_0" slope="0.00" acceleration="2.10"/>
    </timestep>
    <timestep time="7.00">
        <vehicle id="follower" x="611.22" y="745.08" angle="74.99" type="DEFAULT_VEHTYPE@follower" speed="13.88" pos="54.38" lane="E2_0" slope="0.00" acceleration="1.71"/>
        <vehicle id="leader" x="651.73" y="755.94" angle="74.99" type="DEFAULT_VEHTYPE@leader" speed="16.07" pos="96.31" lane="E2_0" slope="0.00" acceleration="-0.40"/>
    </timestep>
    <timestep time="7.10">
        <vehicle id="follower" x="612.56" y="745.44" angle="74.99" type="DEFAULT_VEHTYPE@follower" speed="13.81" pos="55.76" lane="E2_0" slope="0.00" acceleration="-0.73"/>
        <vehicle id="leader" x="653.28" y="756.35" angle="74.99" type="DEFAULT_VEHTYPE@leader" speed="16.07" pos="97.92" lane="E2_0" slope="0.00" acceleration="0.00"/>
    </timestep>
    <timestep time="7.20">
        <vehicle id="follower" x="613.90" y="745.80" angle="74.99" type="DEFAULT_VEHTYPE@follower" speed="13.90" pos="57.15" lane="E2_0" slope="0.00" acceleration="0.88"/>
        <vehicle id="leader" x="654.83" y="756.77" angle="74.99" type="DEFAULT_VEHTYPE@leader" speed="16.07" pos="99.52" lane="E2_0" slope="0.00" acceleration="0.00"/>
    </timestep>
    <timestep time="7.30">
        <vehicle id="follower" x="615.24" y="746.16" angle="74.99" type="DEFAULT_VEHTYPE@follower" speed="13.95" pos="58.54" lane="E2_0" slope="0.00" acceleration="0.54"/>
        <vehicle id="leader" x="656.38" y="757.19" angle="74.99" type="DEFAULT_VEHTYPE@leader" speed="16.07" pos="101.13" lane="E2_0" slope="0.00" acceleration="0.00"/>
    </timestep>
    <timestep time="7.40">
        <vehicle id="follower" x="616.59" y="746.52" angle="74.99" type="DEFAULT_VEHTYPE@follower" speed="13.98" pos="59.94" lane="E2_0" slope="0.00" acceleration="0.27"/>
        <vehicle id="leader" x="657.93" y="757.60" angle="74.99" type="DEFAULT_VEHTYPE@leader" speed="16.07" pos="102.74" lane="E2_0" slope="0.00" acceleration="0.00"/>
    </timestep>
    <timestep time="7.50">
        <vehicle id="follower" x="617.94" y="746.88" angle="74.99" type="DEFAULT_VEHTYPE@follower" speed="13.97" pos="61.34" lane="E2_0" slope="0.00" acceleration="-0.06"/>
        <vehicle id="leader" x="659.49" y="758.02" angle="74.99" type="DEFAULT_VEHTYPE@leader" speed="16.07" pos="104.35" lane="E2_0" slope="0.00" acceleration="0.00"/>
    </timestep>
    <timestep time="7.60">
        <vehicle id="follower" x="619.30" y="747.25" angle="74.99" type="DEFAULT_VEHTYPE@follower" speed="14.05" pos="62.74" lane="E2_0" slope="0.00" acceleration="0.78"/>
        <vehicle id="leader" x="661.03" y="758.43" angle="74.99" type="DEFAULT_VEHTYPE@leader" speed="16.01" pos="105.95" lane="E2_0" slope="0.00" acceleration="-0.60"/>
    </timestep>
    <timestep time="7.70">
        <vehicle id="follower" x="620.65" y="747.61" angle="74.99" type="DEFAULT_VEHTYPE@follower" speed="13.95" pos="64.14" lane="E2_0" slope="0.00" acceleration="-0.97"/>
        <vehicle id="leader" x="662.58" y="758.85" angle="74.99" type="DEFAULT_VEHTYPE@leader" speed="16.04" pos="107.55" lane="E2_0" slope="0.00" acceleration="0.30"/>
    </timestep>
    <timestep time="7.80">
        <vehicle id="follower" x="622.00" y="747.97" angle="74.99" type="DEFAULT_VEHTYPE@follower" speed="13.97" pos="65.53" lane="E2_0" slope="0.00" acceleration="0.17"/>
        <vehicle id="leader" x="664.14" y="759.27" angle="74.99" type="DEFAULT_VEHTYPE@leader" speed="16.16" pos="109.17" lane="E2_0" slope="0.00" acceleration="1.20"/>
    </timestep>
    <timestep time="7.90">
        <vehicle id="follower" x="623.35" y="748.33" angle="74.99" type="DEFAULT_VEHTYPE@follower" speed="14.05" pos="66.94" lane="E2_0" slope="0.00" acceleration="0.78"/>
        <vehicle id="leader" x="665.71" y="759.69" angle="74.99" type="DEFAULT_VEHTYPE@leader" speed="16.18" pos="110.78" lane="E2_0" slope="0.00" acceleration="0.20"/>
    </timestep>
    <timestep time="8.00">
        <vehicle id="follower" x="624.72" y="748.70" angle="74.99" type="DEFAULT_VEHTYPE@follower" speed="14.12" pos="68.35" lane="E2_0" slope="0.00" acceleration="0.75"/>
        <vehicle id="leader" x="667.27" y="760.10" angle="74.99" type="DEFAULT_VEHTYPE@leader" speed="16.15" pos="112.40" lane="E2_0" slope="0.00" acceleration="-0.30"/>
    </timestep>
    <timestep time="8.10">
        <vehicle id="follower" x="626.09" y="749.06" angle="74.99" type="DEFAULT_VEHTYPE@follower" speed="14.15" pos="69.76" lane="E2_0" slope="0.00" acceleration="0.24"/>
        <vehicle id="leader" x="668.83" y="760.52" angle="74.99" type="DEFAULT_VEHTYPE@leader" speed="16.22" pos="114.02" lane="E2_0" slope="0.00" acceleration="0.70"/>
    </timestep>
    <timestep time="8.20">
        <vehicle id="follower" x="627.46" y="749.43" angle="74.99" type="DEFAULT_VEHTYPE@follower" speed="14.24" pos="71.19" lane="E2_0" slope="0.00" acceleration="0.93"/>
        <vehicle id="leader" x="670.41" y="760.95" angle="74.99" type="DEFAULT_VEHTYPE@leader" speed="16.32" pos="115.65" lane="E2_0" slope="0.00" acceleration="1.00"/>
    </timestep>
    <timestep time="8.30">
        <vehicle id="follower" x="628.84" y="749.80" angle="74.99" type="DEFAULT_VEHTYPE@follower" speed="14.28" pos="72.62" lane="E2_0" slope="0.00" acceleration="0.44"/>
        <vehicle id="leader" x="671.98" y="761.37" angle="74.99" type="DEFAULT_VEHTYPE@leader" speed="16.31" pos="117.28" lane="E2_0" slope="0.00" acceleration="-0.10"/>
    </timestep>
    <timestep time="8.40">
        <vehicle id="follower" x="630.23" y="750.18" angle="74.99" type="DEFAULT_VEHTYPE@follower" speed="14.38" pos="74.05" lane="E2_0" slope="0.00" acceleration="0.96"/>
        <vehicle id="leader" x="673.56" y="761.79" angle="74.99" type="DEFAULT_VEHTYPE@leader" speed="16.27" pos="118.91" lane="E2_0" slope="0.00" acceleration="-0.40"/>
    </timestep>
    <timestep time="8.50">
        <vehicle id="follower" x="631.61" y="750.55" angle="74.99" type="DEFAULT_VEHTYPE@follower" speed="14.30" pos="75.48" lane="E2_0" slope="0.00" acceleration="-0.75"/>
        <vehicle id="leader" x="675.13" y="762.21" angle="74.99" type="DEFAULT_VEHTYPE@leader" speed="16.30" pos="120.54" lane="E2_0" slope="0.00" acceleration="0.30"/>
    </timestep>
    <timestep time="8.60">
        <vehicle id="follower" x="632.99" y="750.92" angle="74.99" type="DEFAULT_VEHTYPE@follower" speed="14.30" pos="76.91" lane="E2_0" slope="0.00" acceleration="-0.04"/>
        <vehicle id="leader" x="676.71" y="762.64" angle="74.99" type="DEFAULT_VEHTYPE@leader" speed="16.40" pos="122.18" lane="E2_0" slope="0.00" acceleration="1.00"/>
    </timestep>
    <timestep time="8.70">
        <vehicle id="follower" x="634.39" y="751.29" angle="74.99" type="DEFAULT_VEHTYPE@follower" speed="14.52" pos="78.37" lane="E2_0" slope="0.00" acceleration="2.16"/>
        <vehicle id="leader" x="678.31" y="763.07" angle="74.99" type="DEFAULT_VEHTYPE@leader" speed="16.54" pos="123.83" lane="E2_0" slope="0.00" acceleration="1.40"/>
    </timestep>
    <timestep time="8.80">
        <vehicle id="follower" x="635.79" y="751.67" angle="74.99" type="DEFAULT_VEHTYPE@follower" speed="14.48" pos="79.81" lane="E2_0" slope="0.00" acceleration="-0.37"/>
        <vehicle id="leader" x="679.92" y="763.50" angle="74.99" type="DEFAULT_VEHTYPE@leader" speed="16.60" pos="125.49" lane="E2_0" slope="0.00" acceleration="0.60"/>
    </timestep>
    <timestep time="8.90">