<?xml version="1.0" encoding="UTF-8"?>

<!-- generated on 2023-03-31 10:45:08 by Eclipse SUMO sumo Version 1.16.0
<configuration xmlns:xsi="http://www.w3.org/2001/XMLSchema-instance" xsi:noNamespaceSchemaLocation="http://sumo.dlr.de/xsd/sumoConfiguration.xsd">

    <input>
        <net-file value="c:\Users\aryak\Projects\cf-sumo\sumo-xml\net.net.xml"/>
    </input>

    <output>
        <fcd-output value="c:\Users\aryak\Projects\cf-sumo\sumo-xml\output\fcd.xml"/>
        <fcd-output.acceleration value="true"/>
    </output>

    <time>
        <step-length value="0.1"/>
    </time>

    <report>
        <no-step-log value="true"/>
    </report>

    <traci_server>
        <remote-port value="50981"/>
    </traci_server>

</configuration>
-->

<fcd-export xmlns:xsi="http://www.w3.org/2001/XMLSchema-instance" xsi:noNamespaceSchemaLocation="http://sumo.dlr.de/xsd/fcd_file.xsd">
    <timestep time="0.00">
        <vehicle id="leader" x="563.63" y="732.32" angle="74.99" type="DEFAULT_VEHTYPE@leader" speed="10.35" pos="5.10" lane="E2_0" slope="0.00" acceleration="0.00"/>
    </timestep>
    <timestep time="0.10">
        <vehicle id="leader" x="564.63" y="732.59" angle="74.99" type="DEFAULT_VEHTYPE@leader" speed="10.36" pos="6.14" lane="E2_0" slope="0.00" acceleration="0.10"/>
    </timestep>
    <timestep time="0.20">
        <vehicle id="leader" x="565.63" y="732.86" angle="74.99" type="DEFAULT_VEHTYPE@leader" speed="10.37" pos="7.17" lane="E2_0" slope="0.00" acceleration="0.10"/>
    </timestep>
    <timestep time="0.30">
        <vehicle id="leader" x="566.63" y="733.13" angle="74.99" type="DEFAULT_VEHTYPE@leader" speed="10.38" pos="8.21" lane="E2_0" slope="0.00" acceleration="0.10"/>
    </timestep>
    <timestep time="0.40">
        <vehicle id="leader" x="567.64" y="733.40" angle="74.99" type="DEFAULT_VEHTYPE@leader" speed="10.39" pos="9.25" lane="E2_0" slope="0.00" acceleration="0.10"/>
    </timestep>
    <timestep time="0.50">
        <vehicle id="leader" x="568.64" y="733.67" angle="74.99" type="DEFAULT_VEHTYPE@leader" speed="10.40" pos="10.29" lane="E2_0" slope="0.00" acceleration="0.10"/>
    </timestep>
    <timestep time="0.60">
        <vehicle id="leader" x="569.65" y="733.93" angle="74.99" type="DEFAULT_VEHTYPE@leader" speed="10.41" pos="11.33" lane="E2_0" slope="0.00" acceleration="0.10"/>
    </timestep>
    <timestep time="0.70">
        <vehicle id="leader" x="570.65" y="734.20" angle="74.99" type="DEFAULT_VEHTYPE@leader" speed="10.42" pos="12.38" lane="E2_0" slope="0.00" acceleration="0.10"/>
    </timestep>
    <timestep time="0.80">
        <vehicle id="leader" x="571.66" y="734.47" angle="74.99" type="DEFAULT_VEHTYPE@leader" speed="10.43" pos="13.42" lane="E2_0" slope="0.00" acceleration="0.10"/>
    </timestep>
    <timestep time="0.90">
        <vehicle id="leader" x="572.67" y="734.75" angle="74.99" type="DEFAULT_VEHTYPE@leader" speed="10.44" pos="14.46" lane="E2_0" slope="0.00" acceleration="0.10"/>
    </timestep>
    <timestep time="1.00">
        <vehicle id="leader" x="573.68" y="735.02" angle="74.99" type="DEFAULT_VEHTYPE@leader" speed="10.45" pos="15.51" lane="E2_0" slope="0.00" acceleration="0.10"/>
    </timestep>
    <timestep time="1.10">
        <vehicle id="leader" x="574.69" y="735.29" angle="74.99" type="DEFAULT_VEHTYPE@leader" speed="10.46" pos="16.56" lane="E2_0" slope="0.00" acceleration="0.10"/>
    </timestep>
    <timestep time="1.20">
        <vehicle id="leader" x="575.70" y="735.56" angle="74.99" type="DEFAULT_VEHTYPE@leader" speed="10.47" pos="17.60" lane="E2_0" slope="0.00" acceleration="0.10"/>
    </timestep>
    <timestep time="1.30">
        <vehicle id="leader" x="576.72" y="735.83" angle="74.99" type="DEFAULT_VEHTYPE@leader" speed="10.48" pos="18.65" lane="E2_0" slope="0.00" acceleration="0.10"/>
    </timestep>
    <timestep time="1.40">
        <vehicle id="leader" x="577.73" y="736.10" angle="74.99" type="DEFAULT_VEHTYPE@leader" speed="10.49" pos="19.70" lane="E2_0" slope="0.00" acceleration="0.10"/>
    </timestep>
    <timestep time="1.50">
        <vehicle id="leader" x="578.74" y="736.37" angle="74.99" type="DEFAULT_VEHTYPE@leader" speed="10.50" pos="20.75" lane="E2_0" slope="0.00" acceleration="0.10"/>
    </timestep>
    <timestep time="1.60">
        <vehicle id="leader" x="579.76" y="736.65" angle="74.99" type="DEFAULT_VEHTYPE@leader" speed="10.51" pos="21.80" lane="E2_0" slope="0.00" acceleration="0.10"/>
    </timestep>
    <timestep time="1.70">
        <vehicle id="leader" x="580.78" y="736.92" angle="74.99" type="DEFAULT_VEHTYPE@leader" speed="10.52" pos="22.86" lane="E2_0" slope="0.00" acceleration="0.10"/>
    </timestep>
    <timestep time="1.80">
        <vehicle id="leader" x="581.79" y="737.19" angle="74.99" type="DEFAULT_VEHTYPE@leader" speed="10.53" pos="23.91" lane="E2_0" slope="0.00" acceleration="0.10"/>
    </timestep>
    <timestep time="1.90">
        <vehicle id="leader" x="582.81" y="737.46" angle="74.99" type="DEFAULT_VEHTYPE@leader" speed="10.54" pos="24.96" lane="E2_0" slope="0.00" acceleration="0.10"/>
    </timestep>
    <timestep time="2.00">
        <vehicle id="leader" x="583.83" y="737.74" angle="74.99" type="DEFAULT_VEHTYPE@leader" speed="10.55" pos="26.02" lane="E2_0" slope="0.00" acceleration="0.10"/>
    </timestep>
    <timestep time="2.10">
        <vehicle id="leader" x="584.85" y="738.01" angle="74.99" type="DEFAULT_VEHTYPE@leader" speed="10.56" pos="27.08" lane="E2_0" slope="0.00" acceleration="0.10"/>
    </timestep>
    <timestep time="2.20">
        <vehicle id="leader" x="585.87" y="738.28" angle="74.99" type="DEFAULT_VEHTYPE@leader" speed="10.57" pos="28.13" lane="E2_0" slope="0.00" acceleration="0.10"/>
    </timestep>
    <timestep time="2.30">
        <vehicle id="leader" x="586.90" y="738.56" angle="74.99" type="DEFAULT_VEHTYPE@leader" speed="10.58" pos="29.19" lane="E2_0" slope="0.00" acceleration="0.10"/>
    </timestep>
    <timestep time="2.40">
        <vehicle id="leader" x="587.92" y="738.83" angle="74.99" type="DEFAULT_VEHTYPE@leader" speed="10.59" pos="30.25" lane="E2_0" slope="0.00" acceleration="0.10"/>
    </timestep>
    <timestep time="2.50">
        <vehicle id="leader" x="588.94" y="739.11" angle="74.99" type="DEFAULT_VEHTYPE@leader" speed="10.60" pos="31.31" lane="E2_0" slope="0.00" acceleration="0.10"/>
    </timestep>
    <timestep time="2.60">
        <vehicle id="leader" x="589.97" y="739.38" angle="74.99" type="DEFAULT_VEHTYPE@leader" speed="10.61" pos="32.37" lane="E2_0" slope="0.00" acceleration="0.10"/>
    </timestep>
    <timestep time="2.70">
        <vehicle id="leader" x="591.00" y="739.66" angle="74.99" type="DEFAULT_VEHTYPE@leader" speed="10.62" pos="33.44" lane="E2_0" slope="0.00" acceleration="0.10"/>
    </timestep>
    <timestep time="2.80">
        <vehicle id="leader" x="592.02" y="739.93" angle="74.99" type="DEFAULT_VEHTYPE@leader" speed="10.63" pos="34.50" lane="E2_0" slope="0.00" acceleration="0.10"/>
    </timestep>
    <timestep time="2.90">
        <vehicle id="leader" x="593.05" y="740.21" angle="74.99" type="DEFAULT_VEHTYPE@leader" speed="10.64" pos="35.56" lane="E2_0" slope="0.00" acceleration="0.10"/>
    </timestep>
    <timestep time="3.00">
        <vehicle id="follower" x="563.63" y="732.32" angle="74.99" type="DEFAULT_VEHTYPE@follower" speed="10.35" pos="5.10" lane="E2_0" slope="0.00" acceleration="0.00"/>
        <vehicle id="leader" x="594.08" y="740.48" angle="74.99" type="DEFAULT_VEHTYPE@leader" speed="10.65" pos="36.63" lane="E2_0" slope="0.00" acceleration="0.10"/>
    </timestep>
    <timestep time="3.10">
        <vehicle id="follower" x="564.61" y="732.58" angle="74.99" type="DEFAULT_VEHTYPE@follower" speed="10.18" pos="6.12" lane="E2_0" slope="0.00" acceleration="-1.76"/>
        <vehicle id="leader" x="595.11" y="740.76" angle="74.99" type="DEFAULT_VEHTYPE@leader" speed="10.66" pos="37.70" lane="E2_0" slope="0.00" acceleration="0.10"/>
    </timestep>
    <timestep time="3.20">
        <vehicle id="follower" x="565.58" y="732.84" angle="74.99" type="DEFAULT_VEHTYPE@follower" speed="10.01" pos="7.12" lane="E2_0" slope="0.00" acceleration="-1.69"/>
        <vehicle id="leader" x="596.14" y="741.04" angle="74.99" type="DEFAULT_VEHTYPE@leader" speed="10.67" pos="38.76" lane="E2_0" slope="0.00" acceleration="0.10"/>
    </timestep>
    <timestep time="3.30">
        <vehicle id="follower" x="566.53" y="733.10" angle="74.99" type="DEFAULT_VEHTYPE@follower" speed="9.85" pos="8.10" lane="E2_0" slope="0.00" acceleration="-1.63"/>
        <vehicle id="leader" x="597.17" y="741.31" angle="74.99" type="DEFAULT_VEHTYPE@leader" speed="10.68" pos="39.83" lane="E2_0" slope="0.00" acceleration="0.10"/>
    </timestep>
    <timestep time="3.40">
        <vehicle id="follower" x="567.46" y="733.35" angle="74.99" type="DEFAULT_VEHTYPE@follower" speed="9.69" pos="9.07" lane="E2_0" slope="0.00" acceleration="-1.58"/>
        <vehicle id="leader" x="598.21" y="741.59" angle="74.99" type="DEFAULT_VEHTYPE@leader" speed="10.69" pos="40.90" lane="E2_0" slope="0.00" acceleration="0.10"/>
    </timestep>
    <timestep time="3.50">
        <vehicle id="follower" x="568.38" y="733.60" angle="74.99" type="DEFAULT_VEHTYPE@follower" speed="9.54" pos="10.03" lane="E2_0" slope="0.00" acceleration="-1.52"/>
        <vehicle id="leader" x="599.24" y="741.87" angle="74.99" type="DEFAULT_VEHTYPE@leader" speed="10.70" pos="41.97" lane="E2_0" slope="0.00" acceleration="0.10"/>
    </timestep>
    <timestep time="3.60">
        <vehicle id="follower" x="569.29" y="733.84" angle="74.99" type="DEFAULT_VEHTYPE@follower" speed="9.39" pos="10.97" lane="E2_0" slope="0.00" acceleration="-1.47"/>
        <vehicle id="leader" x="600.27" y="742.15" angle="74.99" type="DEFAULT_VEHTYPE@leader" speed="10.71" pos="43.04" lane="E2_0" slope="0.00" acceleration="0.10"/>
    </timestep>
    <timestep time="3.70">
        <vehicle id="follower" x="570.18" y="734.08" angle="74.99" type="DEFAULT_VEHTYPE@follower" speed="9.25" pos="11.89" lane="E2_0" slope="0.00" acceleration="-1.42"/>
        <vehicle id="leader" x="601.31" y="742.42" angle="74.99" type="DEFAULT_VEHTYPE@leader" speed="10.72" pos="44.12" lane="E2_0" slope="0.00" acceleration="0.10"/>
    </timestep>
    <timestep time="3.80">
        <vehicle id="follower" x="571.06" y="734.31" angle="74.99" type="DEFAULT_VEHTYPE@follower" speed="9.11" pos="12.80" lane="E2_0" slope="0.00" acceleration="-1.37"/>
        <vehicle id="leader" x="602.35" y="742.70" angle="74.99" type="DEFAULT_VEHTYPE@leader" speed="10.73" pos="45.19" lane="E2_0" slope="0.00" acceleration="0.10"/>
    </timestep>
    <timestep time="3.90">
        <vehicle id="follower" x="571.93" y="734.55" angle="74.99" type="DEFAULT_VEHTYPE@follower" speed="8.98" pos="13.70" lane="E2_0" slope="0.00" acceleration="-1.32"/>
        <vehicle id="leader" x="603.39" y="742.98" angle="74.99" type="DEFAULT_VEHTYPE@leader" speed="10.74" pos="46.26" lane="E2_0" slope="0.00" acceleration="0.10"/>
    </timestep>
    <timestep time="4.00">
        <vehicle id="follower" x="572.79" y="734.78" angle="74.99" type="DEFAULT_VEHTYPE@follower" speed="8.85" pos="14.58" lane="E2_0" slope="0.00" acceleration="-1.28"/>
        <vehicle id="leader" x="604.42" y="743.26" angle="74.99" type="DEFAULT_VEHTYPE@leader" speed="10.75" pos="47.34" lane="E2_0" slope="0.00" acceleration="0.10"/>
    </timestep>
    <timestep time="4.10">
        <vehicle id="follower" x="573.63" y="735.00" angle="74.99" type="DEFAULT_VEHTYPE@follower" speed="8.73" pos="15.46" lane="E2_0" slope="0.00" acceleration="-1.23"/>
        <vehicle id="leader" x="605.46" y="743.54" angle="74.99" type="DEFAULT_VEHTYPE@leader" speed="10.76" pos="48.42" lane="E2_0" slope="0.00" acceleration="0.10"/>
    </timestep>
    <timestep time="4.20">
        <vehicle id="follower" x="574.46" y="735.23" angle="74.99" type="DEFAULT_VEHTYPE@follower" speed="8.61" pos="16.32" lane="E2_0" slope="0.00" acceleration="-1.19"/>
        <vehicle id="leader" x="606.50" y="743.82" angle="74.99" type="DEFAULT_VEHTYPE@leader" speed="10.77" pos="49.49" lane="E2_0" slope="0.00" acceleration="0.10"/>
    </timestep>
    <timestep time="4.30">
        <vehicle id="follower" x="575.28" y="735.45" angle="74.99" type="DEFAULT_VEHTYPE@follower" speed="8.49" pos="17.17" lane="E2_0" slope="0.00" acceleration="-1.15"/>
        <vehicle id="leader" x="607.55" y="744.09" angle="74.99" type="DEFAULT_VEHTYPE@leader" speed="10.78" pos="50.57" lane="E2_0" slope="0.00" acceleration="0.10"/>
    </timestep>
    <timestep time="4.40">
        <vehicle id="follower" x="576.09" y="735.66" angle="74.99" type="DEFAULT_VEHTYPE@follower" speed="8.38" pos="18.01" lane="E2_0" slope="0.00" acceleration="-1.11"/>
        <vehicle id="leader" x="608.59" y="744.37" angle="74.99" type="DEFAULT_VEHTYPE@leader" speed="10.79" pos="51.65" lane="E2_0" slope="0.00" acceleration="0.10"/>
    </timestep>
    <timestep time="4.50">
        <vehicle id="follower" x="576.89" y="735.88" angle="74.99" type="DEFAULT_VEHTYPE@follower" speed="8.27" pos="18.83" lane="E2_0" slope="0.00" acceleration="-1.08"/>
        <vehicle id="leader" x="609.63" y="744.65" angle="74.99" type="DEFAULT_VEHTYPE@leader" speed="10.80" pos="52.73" lane="E2_0" slope="0.00" acceleration="0.10"/>
    </timestep>
    <timestep time="4.60">
        <vehicle id="follower" x="577.68" y="736.09" angle="74.99" type="DEFAULT_VEHTYPE@follower" speed="8.17" pos="19.65" lane="E2_0" slope="0.00" acceleration="-1.04"/>
        <vehicle id="leader" x="610.68" y="744.93" angle="74.99" type="DEFAULT_VEHTYPE@leader" speed="10.81" pos="53.81" lane="E2_0" slope="0.00" acceleration="0.10"/>
    </timestep>
    <timestep time="4.70">
        <vehicle id="follower" x="578.46" y="736.30" angle="74.99" type="DEFAULT_VEHTYPE@follower" speed="8.07" pos="20.46" lane="E2_0" slope="0.00" acceleration="-1.01"/>
        <vehicle id="leader" x="611.72" y="745.21" angle="74.99" type="DEFAULT_VEHTYPE@leader" speed="10.82" pos="54.90" lane="E2_0" slope="0.00" acceleration="0.10"/>
    </timestep>
    <timestep time="4.80">
        <vehicle id="follower" x="579.23" y="736.50" angle="74.99" type="DEFAULT_VEHTYPE@follower" speed="7.97" pos="21.25" lane="E2_0" slope="0.00" acceleration="-0.98"/>
        <vehicle id="leader" x="612.77" y="745.49" angle="74.99" type="DEFAULT_VEHTYPE@leader" speed="10.83" pos="55.98" lane="E2_0" slope="0.00" acceleration="0.10"/>
    </timestep>
    <timestep time="4.90">
        <vehicle id="follower" x="579.99" y="736.71" angle="74.99" type="DEFAULT_VEHTYPE@follower" speed="7.88" pos="22.04" lane="E2_0" slope="0.00" acceleration="-0.95"/>
        <vehicle id="leader" x="613.82" y="745.78" angle="74.99" type="DEFAULT_VEHTYPE@leader" speed="10.84" pos="57.06" lane="E2_0" slope="0.00" acceleration="0.10"/>
    </timestep>
    <timestep time="5.00">
        <vehicle id="follower" x="580.74" y="736.91" angle="74.99" type="DEFAULT_VEHTYPE@follower" speed="7.78" pos="22.82" lane="E2_0" slope="0.00" acceleration="-0.92"/>
        <vehicle id="leader" x="614.87" y="746.06" angle="74.99" type="DEFAULT_VEHTYPE@leader" speed="10.85" pos="58.15" lane="E2_0" slope="0.00" acceleration="0.10"/>
    </timestep>
    <timestep time="5.10">
        <vehicle id="follower" x="581.49" y="737.11" angle="74.99" type="DEFAULT_VEHTYPE@follower" speed="7.70" pos="23.59" lane="E2_0" slope="0.00" acceleration="-0.89"/>
        <vehicle id="leader" x="615.91" y="746.34" angle="74.99" type="DEFAULT_VEHTYPE@leader" speed="10.86" pos="59.24" lane="E2_0" slope="0.00" acceleration="0.10"/>
    </timestep>
    <timestep time="5.20">
        <vehicle id="follower" x="582.22" y="737.31" angle="74.99" type="DEFAULT_VEHTYPE@follower" speed="7.61" pos="24.35" lane="E2_0" slope="0.00" acceleration="-0.86"/>
        <vehicle id="leader" x="616.97" y="746.62" angle="74.99" type="DEFAULT_VEHTYPE@leader" speed="10.87" pos="60.32" lane="E2_0" slope="0.00" acceleration="0.10"/>
    </timestep>
    <timestep time="5.30">
        <vehicle id="follower" x="582.95" y="737.50" angle="74.99" type="DEFAULT_VEHTYPE@follower" speed="7.53" pos="25.10" lane="E2_0" slope="0.00" acceleration="-0.84"/>
        <vehicle id="leader" x="618.02" y="746.90" angle="74.99" type="DEFAULT_VEHTYPE@leader" speed="10.88" pos="61.41" lane="E2_0" slope="0.00" acceleration="0.10"/>
    </timestep>
    <timestep time="5.40">
        <vehicle id="follower" x="583.67" y="737.69" angle="74.99" type="DEFAULT_VEHTYPE@follower" speed="7.45" pos="25.85" lane="E2_0" slope="0.00" acceleration="-0.81"/>
        <vehicle id="leader" x="619.07" y="747.18" angle="74.99" type="DEFAULT_VEHTYPE@leader" speed="10.89" pos="62.50" lane="E2_0" slope="0.00" acceleration="0.10"/>
    </timestep>
    <timestep time="5.50">
        <vehicle id="follower" x="584.38" y="737.88" angle="74.99" type="DEFAULT_VEHTYPE@follower" speed="7.37" pos="26.58" lane="E2_0" slope="0.00" acceleration="-0.79"/>
        <vehicle id="leader" x="620.12" y="747.47" angle="74.99" type="DEFAULT_VEHTYPE@leader" speed="10.90" pos="63.59" lane="E2_0" slope="0.00" acceleration="0.10"/>
    </timestep>
    <timestep time="5.60">
        <vehicle id="follower" x="585.08" y="738.07" angle="74.99" type="DEFAULT_VEHTYPE@follower" speed="7.29" pos="27.31" lane="E2_0" slope="0.00" acceleration="-0.76"/>
        <vehicle id="leader" x="621.18" y="747.75" angle="74.99" type="DEFAULT_VEHTYPE@leader" speed="10.91" pos="64.68" lane="E2_0" slope="0.00" acceleration="0.10"/>
    </timestep>
    <timestep time="5.70">
        <vehicle id="follower" x="585.78" y="738.26" angle="74.99" type="DEFAULT_VEHTYPE@follower" speed="7.22" pos="28.04" lane="E2_0" slope="0.00" acceleration="-0.74"/>
        <vehicle id="leader" x="622.23" y="748.03" angle="74.99" type="DEFAULT_VEHTYPE@leader" speed="10.92" pos="65.77" lane="E2_0" slope="0.00" acceleration="0.10"/>
    </timestep>
    <timestep time="5.80">
        <vehicle id="follower" x="586.47" y="738.44" angle="74.99" type="DEFAULT_VEHTYPE@follower" speed="7.14" pos="28.75" lane="E2_0" slope="0.00" acceleration="-0.72"/>
        <vehicle id="leader" x="623.29" y="748.31" angle="74.99" type="DEFAULT_VEHTYPE@leader" speed="10.93" pos="66.87" lane="E2_0" slope="0.00" acceleration="0.10"/>
    </timestep>
    <timestep time="5.90">
        <vehicle id="follower" x="587.15" y="738.63" angle="74.99" type="DEFAULT_VEHTYPE@follower" speed="7.08" pos="29.46" lane="E2_0" slope="0.00" acceleration="-0.70"/>
        <vehicle id="leader" x="624.34" y="748.60" angle="74.99" type="DEFAULT_VEHTYPE@leader" speed="10.94" pos="67.96" lane="E2_0" slope="0.00" acceleration="0.10"/>
    </timestep>
    <timestep time="6.00">
        <vehicle id="follower" x="587.83" y="738.81" angle="74.99" type="DEFAULT_VEHTYPE@follower" speed="7.01" pos="30.16" lane="E2_0" slope="0.00" acceleration="-0.68"/>
        <vehicle id="leader" x="625.40" y="748.88" angle="74.99" type="DEFAULT_VEHTYPE@leader" speed="10.95" pos="69.06" lane="E2_0" slope="0.00" acceleration="0.10"/>
    </timestep>
    <timestep time="6.10">
        <vehicle id="follower" x="588.50" y="738.99" angle="74.99" type="DEFAULT_VEHTYPE@follower" speed="6.94" pos="30.85" lane="E2_0" slope="0.00" acceleration="-0.66"/>
        <vehicle id="leader" x="626.46" y="749.17" angle="74.99" type="DEFAULT_VEHTYPE@leader" speed="10.96" pos="70.15" lane="E2_0" slope="0.00" acceleration="0.10"/>
    </timestep>
    <timestep time="6.20">
        <vehicle id="follower" x="589.16" y="739.17" angle="74.99" type="DEFAULT_VEHTYPE@follower" speed="6.88" pos="31.54" lane="E2_0" slope="0.00" acceleration="-0.64"/>
        <vehicle id="leader" x="627.52" y="749.45" angle="74.99" type="DEFAULT_VEHTYPE@leader" speed="10.97" pos="71.25" lane="E2_0" slope="0.00" acceleration="0.10"/>
    </timestep>
    <timestep time="6.30">
        <vehicle id="follower" x="589.82" y="739.34" angle="74.99" type="DEFAULT_VEHTYPE@follower" speed="6.82" pos="32.22" lane="E2_0" slope="0.00" acceleration="-0.62"/>
        <vehicle id="leader" x="628.58" y="749.73" angle="74.99" type="DEFAULT_VEHTYPE@leader" speed="10.98" pos="72.35" lane="E2_0" slope="0.00" acceleration="0.10"/>
    </timestep>
    <timestep time="6.40">
        <vehicle id="follower" x="590.48" y="739.52" angle="74.99" type="DEFAULT_VEHTYPE@follower" speed="6.75" pos="32.90" lane="E2_0" slope="0.00" acceleration="-0.61"/>
        <vehicle id="leader" x="629.65" y="750.02" angle="74.99" type="DEFAULT_VEHTYPE@leader" speed="10.99" pos="73.45" lane="E2_0" slope="0.00" acceleration="0.10"/>
    </timestep>
    <timestep time="6.50">
        <vehicle id="follower" x="591.12" y="739.69" angle="74.99" type="DEFAULT_VEHTYPE@follower" speed="6.70" pos="33.57" lane="E2_0" slope="0.00" acceleration="-0.59"/>
        <vehicle id="leader" x="630.71" y="750.30" angle="74.99" type="DEFAULT_VEHTYPE@leader" speed="11.00" pos="74.55" lane="E2_0" slope="0.00" acceleration="0.10"/>
    </timestep>
    <timestep time="6.60">
        <vehicle id="follower" x="591.76" y="739.86" angle="74.99" type="DEFAULT_VEHTYPE@follower" speed="6.64" pos="34.23" lane="E2_0" slope="0.00" acceleration="-0.57"/>
        <vehicle id="leader" x="631.77" y="750.59" angle="74.99" type="DEFAULT_VEHTYPE@leader" speed="11.01" pos="75.65" lane="E2_0" slope="0.00" acceleration="0.10"/>
    </timestep>
    <timestep time="6.70">
        <vehicle id="follower" x="592.40" y="740.03" angle="74.99" type="DEFAULT_VEHTYPE@follower" speed="6.58" pos="34.89" lane="E2_0" slope="0.00" acceleration="-0.56"/>
        <vehicle id="leader" x="632.84" y="750.87" angle="74.99" type="DEFAULT_VEHTYPE@leader" speed="11.02" pos="76.75" lane="E2_0" slope="0.00" acceleration="0.10"/>
    </timestep>
    <timestep time="6.80">
        <vehicle id="follower" x="593.03" y="740.20" angle="74.99" type="DEFAULT_VEHTYPE@follower" speed="6.53" pos="35.54" lane="E2_0" slope="0.00" acceleration="-0.54"/>
        <vehicle id="leader" x="633.90" y="751.16" angle="74.99" type="DEFAULT_VEHTYPE@leader" speed="11.03" pos="77.86" lane="E2_0" slope="0.00" acceleration="0.10"/>
    </timestep>
    <timestep time="6.90">
        <vehicle id="follower" x="593.65" y="740.37" angle="74.99" type="DEFAULT_VEHTYPE@follower" speed="6.48" pos="36.19" lane="E2_0" slope="0.00" acceleration="-0.53"/>
        <vehicle id="leader" x="634.97" y="751.45" angle="74.99" type="DEFAULT_VEHTYPE@leader" speed="11.04" pos="78.96" lane="E2_0" slope="0.00" acceleration="0.10"/>
    </timestep>
    <timestep time="7.00">
        <vehicle id="follower" x="594.28" y="740.54" angle="74.99" type="DEFAULT_VEHTYPE@follower" speed="6.42" pos="36.83" lane="E2_0" slope="0.00" acceleration="-0.52"/>
        <vehicle id="leader" x="636.04" y="751.73" angle="74.99" type="DEFAULT_VEHTYPE@leader" speed="11.05" pos="80.07" lane="E2_0" slope="0.00" acceleration="0.10"/>
    </timestep>
    <timestep time="7.10">
        <vehicle id="follower" x="594.89" y="740.70" angle="74.99" type="DEFAULT_VEHTYPE@follower" speed="6.37" pos="37.47" lane="E2_0" slope="0.00" acceleration="-0.50"/>
        <vehicle id="leader" x="637.11" y="752.02" angle="74.99" type="DEFAULT_VEHTYPE@leader" speed="11.06" pos="81.17" lane="E2_0" slope="0.00" acceleration="0.10"/>
    </timestep>
    <timestep time="7.20">
        <vehicle id="follower" x="595.50" y="740.87" angle="74.99" type="DEFAULT_VEHTYPE@follower" speed="6.32" pos="38.10" lane="E2_0" slope="0.00" acceleration="-0.49"/>
        <vehicle id="leader" x="638.18" y="752.31" angle="74.99" type="DEFAULT_VEHTYPE@leader" speed="11.07" pos="82.28" lane="E2_0" slope="0.00" acceleration="0.10"/>
    </timestep>
    <timestep time="7.30">
        <vehicle id="follower" x="596.11" y="741.03" angle="74.99" type="DEFAULT_VEHTYPE@follower" speed="6.28" pos="38.73" lane="E2_0" slope="0.00" acceleration="-0.48"/>
        <vehicle id="leader" x="639.25" y="752.59" angle="74.99" type="DEFAULT_VEHTYPE@leader" speed="11.08" pos="83.39" lane="E2_0" slope="0.00" acceleration="0.10"/>
    </timestep>
    <timestep time="7.40">
        <vehicle id="follower" x="596.71" y="741.19" angle="74.99" type="DEFAULT_VEHTYPE@follower" speed="6.23" pos="39.35" lane="E2_0" slope="0.00" acceleration="-0.47"/>
        <vehicle id="leader" x="640.32" y="752.88" angle="74.99" type="DEFAULT_VEHTYPE@leader" speed="11.09" pos="84.50" lane="E2_0" slope="0.00" acceleration="0.10"/>
    </timestep>
    <timestep time="7.50">
        <vehicle id="follower" x="597.31" y="741.35" angle="74.99" type="DEFAULT_VEHTYPE@follower" speed="6.19" pos="39.97" lane="E2_0" slope="0.00" acceleration="-0.45"/>
        <vehicle id="leader" x="641.39" y="753.17" angle="74.99" type="DEFAULT_VEHTYPE@leader" speed="11.10" pos="85.61" lane="E2_0" slope="0.00" acceleration="0.10"/>
    </timestep>
    <timestep time="7.60">
        <vehicle id="follower" x="597.90" y="741.51" angle="74.99" type="DEFAULT_VEHTYPE@follower" speed="6.14" pos="40.58" lane="E2_0" slope="0.00" acceleration="-0.44"/>
        <vehicle id="leader" x="642.46" y="753.46" angle="74.99" type="DEFAULT_VEHTYPE@leader" speed="11.11" pos="86.72" lane="E2_0" slope="0.00" acceleration="0.10"/>
    </timestep>
    <timestep time="7.70">
        <vehicle id="follower" x="598.49" y="741.67" angle="74.99" type="DEFAULT_VEHTYPE@follower" speed="6.10" pos="41.19" lane="E2_0" slope="0.00" acceleration="-0.43"/>
        <vehicle id="leader" x="643.54" y="753.74" angle="74.99" type="DEFAULT_VEHTYPE@leader" speed="11.12" pos="87.83" lane="E2_0" slope="0.00" acceleration="0.10"/>
    </timestep>
    <timestep time="7.80">
        <vehicle id="follower" x="599.07" y="741.82" angle="74.99" type="DEFAULT_VEHTYPE@follower" speed="6.06" pos="41.80" lane="E2_0" slope="0.00" acceleration="-0.42"/>
        <vehicle id="leader" x="644.61" y="754.03" angle="74.99" type="DEFAULT_VEHTYPE@leader" speed="11.13" pos="88.95" lane="E2_0" slope="0.00" acceleration="0.10"/>
    </timestep>
    <timestep time="7.90">
        <vehicle id="follower" x="599.66" y="741.98" angle="74.99" type="DEFAULT_VEHTYPE@follower" speed="6.01" pos="42.40" lane="E2_0" slope="0.00" acceleration="-0.41"/>
        <vehicle id="leader" x="645.69" y="754.32" angle="74.99" type="DEFAULT_VEHTYPE@leader" speed="11.14" pos="90.06" lane="E2_0" slope="0.00" acceleration="0.10"/>
    </timestep>
    <timestep time="8.00">
        <vehicle id="follower" x="600.23" y="742.13" angle="74.99" type="DEFAULT_VEHTYPE@follower" speed="5.97" pos="43.00" lane="E2_0" slope="0.00" acceleration="-0.40"/>
        <vehicle id="leader" x="646.77" y="754.61" angle="74.99" type="DEFAULT_VEHTYPE@leader" speed="11.15" pos="91.18" lane="E2_0" slope="0.00" acceleration="0.10"/>
    </timestep>
    <timestep time="8.10">
        <vehicle id="follower" x="600.81" y="742.29" angle="74.99" type="DEFAULT_VEHTYPE@follower" speed="5.93" pos="43.59" lane="E2_0" slope="0.00" acceleration="-0.39"/>
        <vehicle id="leader" x="647.85" y="754.90" angle="74.99" type="DEFAULT_VEHTYPE@leader" speed="11.16" pos="92.29" lane="E2_0" slope="0.00" acceleration="0.10"/>
    </timestep>
    <timestep time="8.20">
        <vehicle id="follower" x="601.38" y="742.44" angle="74.99" type="DEFAULT_VEHTYPE@follower" speed="5.90" pos="44.18" lane="E2_0" slope="0.00" acceleration="-0.38"/>
        <vehicle id="leader" x="648.93" y="755.19" angle="74.99" type="DEFAULT_VEHTYPE@leader" speed="11.17" pos="93.41" lane="E2_0" slope="0.00" acceleration="0.10"/>
    </timestep>
    <timestep time="8.30">
        <vehicle id="follower" x="601.94" y="742.59" angle="74.99" type="DEFAULT_VEHTYPE@follower" speed="5.86" pos="44.77" lane="E2_0" slope="0.00" acceleration="-0.38"/>
        <vehicle id="leader" x="650.01" y="755.48" angle="74.99" type="DEFAULT_VEHTYPE@leader" speed="11.18" pos="94.53" lane="E2_0" slope="0.00" acceleration="0.10"/>
    </timestep>
    <timestep time="8.40">
        <vehicle id="follower" x="602.50" y="742.74" angle="74.99" type="DEFAULT_VEHTYPE@follower" speed="5.82" pos="45.35" lane="E2_0" slope="0.00" acceleration="-0.37"/>
        <vehicle id="leader" x="651.09" y="755.77" angle="74.99" type="DEFAULT_VEHTYPE@leader" speed="11.19" pos="95.65" lane="E2_0" slope="0.00" acceleration="0.10"/>
    </timestep>
    <timestep time="8.50">
        <vehicle id="follower" x="603.06" y="742.89" angle="74.99" type="DEFAULT_VEHTYPE@follower" speed="5.79" pos="45.93" lane="E2_0" slope="0.00" acceleration="-0.36"/>
        <vehicle id="leader" x="652.17" y="756.06" angle="74.99" type="DEFAULT_VEHTYPE@leader" speed="11.20" pos="96.77" lane="E2_0" slope="0.00" acceleration="0.10"/>
    </timestep>
    <timestep time="8.60">
        <vehicle id="follower" x="603.62" y="743.04" angle="74.99" type="DEFAULT_VEHTYPE@follower" speed="5.75" pos="46.50" lane="E2_0" slope="0.00" acceleration="-0.35"/>
        <vehicle id="leader" x="653.25" y="756.35" angle="74.99" type="DEFAULT_VEHTYPE@leader" speed="11.21" pos="97.89" lane="E2_0" slope="0.00" acceleration="0.10"/>
    </timestep>
    <timestep time="8.70">
        <vehicle id="follower" x="604.17" y="743.19" angle="74.99" type="DEFAULT_VEHTYPE@follower" speed="5.72" pos="47.08" lane="E2_0" slope="0.00" acceleration="-0.34"/>
        <vehicle id="leader" x="654.34" y="756.64" angle="74.99" type="DEFAULT_VEHTYPE@leader" speed="11.22" pos="99.01" lane="E2_0" slope="0.00" acceleration="0.10"/>
    </timestep>
    <timestep time="8.80">
        <vehicle id="follower" x="604.72" y="743.34" angle="74.99" type="DEFAULT_VEHTYPE@follower" speed="5.68" pos="47.64" lane="E2_0" slope="0.00" acceleration="-0.34"/>
        <vehicle id="leader" x="655.42" y="756.93" angle="74.99" type="DEFAULT_VEHTYPE@leader" speed="11.23" pos="100.14" lane="E2_0" slope="0.00" acceleration="0.10"/>
    </timestep>
    <timestep time="8.90">