<?xml version="1.0" encoding="UTF-8"?>

<!-- generated on 2023-03-28 00:36:58 by Eclipse SUMO sumo Version 1.16.0
<configuration xmlns:xsi="http://www.w3.org/2001/XMLSchema-instance" xsi:noNamespaceSchemaLocation="http://sumo.dlr.de/xsd/sumoConfiguration.xsd">

    <input>
        <net-file value="c:\Users\aryak\Projects\cf-sumo\sumo-xml\net.net.xml"/>
    </input>

    <output>
        <fcd-output value="c:\Users\aryak\Projects\cf-sumo\sumo-xml\output\fcd31.xml"/>
        <fcd-output.acceleration value="true"/>
    </output>

    <time>
        <step-length value="0.1"/>
    </time>

    <report>
        <no-step-log value="true"/>
    </report>

    <traci_server>
        <remote-port value="64567"/>
    </traci_server>

</configuration>
-->

<fcd-export xmlns:xsi="http://www.w3.org/2001/XMLSchema-instance" xsi:noNamespaceSchemaLocation="http://sumo.dlr.de/xsd/fcd_file.xsd">
    <timestep time="0.00">
        <vehicle id="leader" x="563.63" y="732.32" angle="74.99" type="DEFAULT_VEHTYPE" speed="10.35" pos="5.10" lane="E2_0" slope="0.00" acceleration="0.00"/>
    </timestep>
    <timestep time="0.10">
        <vehicle id="leader" x="564.65" y="732.59" angle="74.99" type="DEFAULT_VEHTYPE" speed="10.55" pos="6.15" lane="E2_0" slope="0.00" acceleration="1.95"/>
    </timestep>
    <timestep time="0.20">
        <vehicle id="leader" x="565.67" y="732.87" angle="74.99" type="DEFAULT_VEHTYPE" speed="10.63" pos="7.22" lane="E2_0" slope="0.00" acceleration="0.79"/>
    </timestep>
    <timestep time="0.30">
        <vehicle id="leader" x="566.69" y="733.14" angle="74.99" type="DEFAULT_VEHTYPE" speed="10.53" pos="8.27" lane="E2_0" slope="0.00" acceleration="-1.02"/>
    </timestep>
    <timestep time="0.40">
        <vehicle id="leader" x="567.70" y="733.41" angle="74.99" type="DEFAULT_VEHTYPE" speed="10.48" pos="9.32" lane="E2_0" slope="0.00" acceleration="-0.44"/>
    </timestep>
    <timestep time="0.50">
        <vehicle id="leader" x="568.73" y="733.69" angle="74.99" type="DEFAULT_VEHTYPE" speed="10.66" pos="10.38" lane="E2_0" slope="0.00" acceleration="1.78"/>
    </timestep>
    <timestep time="0.60">
        <vehicle id="leader" x="569.77" y="733.97" angle="74.99" type="DEFAULT_VEHTYPE" speed="10.78" pos="11.46" lane="E2_0" slope="0.00" acceleration="1.23"/>
    </timestep>
    <timestep time="0.70">
        <vehicle id="leader" x="570.81" y="734.25" angle="74.99" type="DEFAULT_VEHTYPE" speed="10.78" pos="12.54" lane="E2_0" slope="0.00" acceleration="0.00"/>
    </timestep>
    <timestep time="0.80">
        <vehicle id="leader" x="571.86" y="734.53" angle="74.99" type="DEFAULT_VEHTYPE" speed="10.78" pos="13.62" lane="E2_0" slope="0.00" acceleration="0.00"/>
    </timestep>
    <timestep time="0.90">
        <vehicle id="leader" x="572.90" y="734.81" angle="74.99" type="DEFAULT_VEHTYPE" speed="10.82" pos="14.70" lane="E2_0" slope="0.00" acceleration="0.40"/>
    </timestep>
    <timestep time="1.00">
        <vehicle id="leader" x="573.95" y="735.09" angle="74.99" type="DEFAULT_VEHTYPE" speed="10.82" pos="15.79" lane="E2_0" slope="0.00" acceleration="0.00"/>
    </timestep>
    <timestep time="1.10">
        <vehicle id="leader" x="574.99" y="735.37" angle="74.99" type="DEFAULT_VEHTYPE" speed="10.82" pos="16.87" lane="E2_0" slope="0.00" acceleration="0.00"/>
    </timestep>
    <timestep time="1.20">
        <vehicle id="leader" x="576.04" y="735.65" angle="74.99" type="DEFAULT_VEHTYPE" speed="10.82" pos="17.95" lane="E2_0" slope="0.00" acceleration="0.00"/>
    </timestep>
    <timestep time="1.30">
        <vehicle id="leader" x="577.11" y="735.93" angle="74.99" type="DEFAULT_VEHTYPE" speed="11.07" pos="19.06" lane="E2_0" slope="0.00" acceleration="2.43"/>
    </timestep>
    <timestep time="1.40">
        <vehicle id="leader" x="578.18" y="736.22" angle="74.99" type="DEFAULT_VEHTYPE" speed="11.16" pos="20.17" lane="E2_0" slope="0.00" acceleration="0.92"/>
    </timestep>
    <timestep time="1.50">
        <vehicle id="leader" x="579.26" y="736.51" angle="74.99" type="DEFAULT_VEHTYPE" speed="11.19" pos="21.29" lane="E2_0" slope="0.00" acceleration="0.28"/>
    </timestep>
    <timestep time="1.60">
        <vehicle id="leader" x="580.35" y="736.80" angle="74.99" type="DEFAULT_VEHTYPE" speed="11.27" pos="22.42" lane="E2_0" slope="0.00" acceleration="0.85"/>
    </timestep>
    <timestep time="1.70">
        <vehicle id="leader" x="581.44" y="737.10" angle="74.99" type="DEFAULT_VEHTYPE" speed="11.27" pos="23.55" lane="E2_0" slope="0.00" acceleration="0.00"/>
    </timestep>
    <timestep time="1.80">
        <vehicle id="leader" x="582.53" y="737.39" angle="74.99" type="DEFAULT_VEHTYPE" speed="11.27" pos="24.67" lane="E2_0" slope="0.00" acceleration="0.00"/>
    </timestep>
    <timestep time="1.90">
        <vehicle id="leader" x="583.64" y="737.69" angle="74.99" type="DEFAULT_VEHTYPE" speed="11.46" pos="25.82" lane="E2_0" slope="0.00" acceleration="1.92"/>
    </timestep>
    <timestep time="2.00">
        <vehicle id="leader" x="584.75" y="737.98" angle="74.99" type="DEFAULT_VEHTYPE" speed="11.51" pos="26.97" lane="E2_0" slope="0.00" acceleration="0.47"/>
    </timestep>
    <timestep time="2.10">
        <vehicle id="leader" x="585.87" y="738.28" angle="74.99" type="DEFAULT_VEHTYPE" speed="11.63" pos="28.13" lane="E2_0" slope="0.00" acceleration="1.15"/>
    </timestep>
    <timestep time="2.20">
        <vehicle id="leader" x="587.01" y="738.59" angle="74.99" type="DEFAULT_VEHTYPE" speed="11.76" pos="29.31" lane="E2_0" slope="0.00" acceleration="1.32"/>
    </timestep>
    <timestep time="2.30">
        <vehicle id="leader" x="588.15" y="738.90" angle="74.99" type="DEFAULT_VEHTYPE" speed="11.82" pos="30.49" lane="E2_0" slope="0.00" acceleration="0.61"/>
    </timestep>
    <timestep time="2.40">
        <vehicle id="leader" x="589.29" y="739.20" angle="74.99" type="DEFAULT_VEHTYPE" speed="11.82" pos="31.67" lane="E2_0" slope="0.00" acceleration="0.00"/>
    </timestep>
    <timestep time="2.50">
        <vehicle id="leader" x="590.44" y="739.51" angle="74.99" type="DEFAULT_VEHTYPE" speed="11.84" pos="32.86" lane="E2_0" slope="0.00" acceleration="0.19"/>
    </timestep>
    <timestep time="2.60">
        <vehicle id="leader" x="591.60" y="739.82" angle="74.99" type="DEFAULT_VEHTYPE" speed="12.04" pos="34.06" lane="E2_0" slope="0.00" acceleration="1.98"/>
    </timestep>
    <timestep time="2.70">
        <vehicle id="leader" x="592.76" y="740.13" angle="74.99" type="DEFAULT_VEHTYPE" speed="12.04" pos="35.26" lane="E2_0" slope="0.00" acceleration="0.00"/>
    </timestep>
    <timestep time="2.80">
        <vehicle id="leader" x="593.94" y="740.45" angle="74.99" type="DEFAULT_VEHTYPE" speed="12.19" pos="36.48" lane="E2_0" slope="0.00" acceleration="1.59"/>
    </timestep>
    <timestep time="2.90">
        <vehicle id="leader" x="595.13" y="740.77" angle="74.99" type="DEFAULT_VEHTYPE" speed="12.37" pos="37.72" lane="E2_0" slope="0.00" acceleration="1.76"/>
    </timestep>
    <timestep time="3.00">
        <vehicle id="follower" x="563.63" y="732.32" angle="74.99" type="DEFAULT_VEHTYPE" speed="10.35" pos="5.10" lane="E2_0" slope="0.00" acceleration="0.00"/>
        <vehicle id="leader" x="596.33" y="741.09" angle="74.99" type="DEFAULT_VEHTYPE" speed="12.37" pos="38.96" lane="E2_0" slope="0.00" acceleration="0.00"/>
    </timestep>
    <timestep time="3.10">
        <vehicle id="follower" x="564.65" y="732.59" angle="74.99" type="DEFAULT_VEHTYPE" speed="10.58" pos="6.16" lane="E2_0" slope="0.00" acceleration="2.21"/>
        <vehicle id="leader" x="597.52" y="741.41" angle="74.99" type="DEFAULT_VEHTYPE" speed="12.37" pos="40.19" lane="E2_0" slope="0.00" acceleration="0.00"/>
    </timestep>
    <timestep time="3.20">
        <vehicle id="follower" x="565.69" y="732.87" angle="74.99" type="DEFAULT_VEHTYPE" speed="10.81" pos="7.24" lane="E2_0" slope="0.00" acceleration="2.39"/>
        <vehicle id="leader" x="598.72" y="741.73" angle="74.99" type="DEFAULT_VEHTYPE" speed="12.37" pos="41.43" lane="E2_0" slope="0.00" acceleration="0.00"/>
    </timestep>
    <timestep time="3.30">
        <vehicle id="follower" x="566.76" y="733.16" angle="74.99" type="DEFAULT_VEHTYPE" speed="11.07" pos="8.35" lane="E2_0" slope="0.00" acceleration="2.56"/>
        <vehicle id="leader" x="599.91" y="742.05" angle="74.99" type="DEFAULT_VEHTYPE" speed="12.37" pos="42.67" lane="E2_0" slope="0.00" acceleration="0.00"/>
    </timestep>
    <timestep time="3.40">
        <vehicle id="follower" x="567.85" y="733.45" angle="74.99" type="DEFAULT_VEHTYPE" speed="11.29" pos="9.47" lane="E2_0" slope="0.00" acceleration="2.17"/>
        <vehicle id="leader" x="601.11" y="742.37" angle="74.99" type="DEFAULT_VEHTYPE" speed="12.37" pos="43.91" lane="E2_0" slope="0.00" acceleration="0.00"/>
    </timestep>
    <timestep time="3.50">
        <vehicle id="follower" x="568.97" y="733.75" angle="74.99" type="DEFAULT_VEHTYPE" speed="11.53" pos="10.63" lane="E2_0" slope="0.00" acceleration="2.44"/>
        <vehicle id="leader" x="602.31" y="742.69" angle="74.99" type="DEFAULT_VEHTYPE" speed="12.45" pos="45.15" lane="E2_0" slope="0.00" acceleration="0.77"/>
    </timestep>
    <timestep time="3.60">
        <vehicle id="follower" x="570.09" y="734.05" angle="74.99" type="DEFAULT_VEHTYPE" speed="11.67" pos="11.79" lane="E2_0" slope="0.00" acceleration="1.35"/>
        <vehicle id="leader" x="603.52" y="743.02" angle="74.99" type="DEFAULT_VEHTYPE" speed="12.56" pos="46.41" lane="E2_0" slope="0.00" acceleration="1.09"/>
    </timestep>
    <timestep time="3.70">
        <vehicle id="follower" x="571.24" y="734.36" angle="74.99" type="DEFAULT_VEHTYPE" speed="11.90" pos="12.98" lane="E2_0" slope="0.00" acceleration="2.31"/>
        <vehicle id="leader" x="604.75" y="743.34" angle="74.99" type="DEFAULT_VEHTYPE" speed="12.68" pos="47.67" lane="E2_0" slope="0.00" acceleration="1.28"/>
    </timestep>
    <timestep time="3.80">
        <vehicle id="follower" x="572.41" y="734.68" angle="74.99" type="DEFAULT_VEHTYPE" speed="12.08" pos="14.19" lane="E2_0" slope="0.00" acceleration="1.86"/>
        <vehicle id="leader" x="606.00" y="743.68" angle="74.99" type="DEFAULT_VEHTYPE" speed="12.93" pos="48.97" lane="E2_0" slope="0.00" acceleration="2.48"/>
    </timestep>
    <timestep time="3.90">
        <vehicle id="follower" x="573.59" y="734.99" angle="74.99" type="DEFAULT_VEHTYPE" speed="12.24" pos="15.42" lane="E2_0" slope="0.00" acceleration="1.54"/>
        <vehicle id="leader" x="607.25" y="744.01" angle="74.99" type="DEFAULT_VEHTYPE" speed="12.93" pos="50.26" lane="E2_0" slope="0.00" acceleration="0.00"/>
    </timestep>
    <timestep time="4.00">
        <vehicle id="follower" x="574.79" y="735.31" angle="74.99" type="DEFAULT_VEHTYPE" speed="12.41" pos="16.66" lane="E2_0" slope="0.00" acceleration="1.73"/>
        <vehicle id="leader" x="608.51" y="744.35" angle="74.99" type="DEFAULT_VEHTYPE" speed="13.03" pos="51.56" lane="E2_0" slope="0.00" acceleration="1.03"/>
    </timestep>
    <timestep time="4.10">
        <vehicle id="follower" x="576.01" y="735.64" angle="74.99" type="DEFAULT_VEHTYPE" speed="12.59" pos="17.92" lane="E2_0" slope="0.00" acceleration="1.82"/>
        <vehicle id="leader" x="609.77" y="744.69" angle="74.99" type="DEFAULT_VEHTYPE" speed="13.11" pos="52.87" lane="E2_0" slope="0.00" acceleration="0.75"/>
    </timestep>
    <timestep time="4.20">
        <vehicle id="follower" x="577.24" y="735.97" angle="74.99" type="DEFAULT_VEHTYPE" speed="12.73" pos="19.19" lane="E2_0" slope="0.00" acceleration="1.38"/>
        <vehicle id="leader" x="611.06" y="745.04" angle="74.99" type="DEFAULT_VEHTYPE" speed="13.35" pos="54.21" lane="E2_0" slope="0.00" acceleration="2.39"/>
    </timestep>
    <timestep time="4.30">
        <vehicle id="follower" x="578.49" y="736.30" angle="74.99" type="DEFAULT_VEHTYPE" speed="12.95" pos="20.49" lane="E2_0" slope="0.00" acceleration="2.20"/>
        <vehicle id="leader" x="612.37" y="745.39" angle="74.99" type="DEFAULT_VEHTYPE" speed="13.53" pos="55.56" lane="E2_0" slope="0.00" acceleration="1.80"/>
    </timestep>
    <timestep time="4.40">
        <vehicle id="follower" x="579.76" y="736.64" angle="74.99" type="DEFAULT_VEHTYPE" speed="13.14" pos="21.80" lane="E2_0" slope="0.00" acceleration="1.85"/>
        <vehicle id="leader" x="613.70" y="745.74" angle="74.99" type="DEFAULT_VEHTYPE" speed="13.79" pos="56.94" lane="E2_0" slope="0.00" acceleration="2.60"/>
    </timestep>
    <timestep time="4.50">
        <vehicle id="follower" x="581.04" y="736.99" angle="74.99" type="DEFAULT_VEHTYPE" speed="13.27" pos="23.13" lane="E2_0" slope="0.00" acceleration="1.36"/>
        <vehicle id="leader" x="615.06" y="746.11" angle="74.99" type="DEFAULT_VEHTYPE" speed="14.05" pos="58.35" lane="E2_0" slope="0.00" acceleration="2.60"/>
    </timestep>
    <timestep time="4.60">
        <vehicle id="follower" x="582.34" y="737.34" angle="74.99" type="DEFAULT_VEHTYPE" speed="13.45" pos="24.47" lane="E2_0" slope="0.00" acceleration="1.77"/>
        <vehicle id="leader" x="616.44" y="746.48" angle="74.99" type="DEFAULT_VEHTYPE" speed="14.31" pos="59.78" lane="E2_0" slope="0.00" acceleration="2.60"/>
    </timestep>
    <timestep time="4.70">
        <vehicle id="follower" x="583.66" y="737.69" angle="74.99" type="DEFAULT_VEHTYPE" speed="13.70" pos="25.84" lane="E2_0" slope="0.00" acceleration="2.56"/>
        <vehicle id="leader" x="617.83" y="746.85" angle="74.99" type="DEFAULT_VEHTYPE" speed="14.42" pos="61.22" lane="E2_0" slope="0.00" acceleration="1.14"/>
    </timestep>
    <timestep time="4.80">
        <vehicle id="follower" x="585.00" y="738.05" angle="74.99" type="DEFAULT_VEHTYPE" speed="13.89" pos="27.23" lane="E2_0" slope="0.00" acceleration="1.89"/>
        <vehicle id="leader" x="619.24" y="747.23" angle="74.99" type="DEFAULT_VEHTYPE" speed="14.58" pos="62.68" lane="E2_0" slope="0.00" acceleration="1.56"/>
    </timestep>
    <timestep time="4.90">
        <vehicle id="follower" x="586.37" y="738.42" angle="74.99" type="DEFAULT_VEHTYPE" speed="14.15" pos="28.65" lane="E2_0" slope="0.00" acceleration="2.51"/>
        <vehicle id="leader" x="620.65" y="747.61" angle="74.99" type="DEFAULT_VEHTYPE" speed="14.63" pos="64.14" lane="E2_0" slope="0.00" acceleration="0.51"/>
    </timestep>
    <timestep time="5.00">
        <vehicle id="follower" x="587.75" y="738.79" angle="74.99" type="DEFAULT_VEHTYPE" speed="14.28" pos="30.07" lane="E2_0" slope="0.00" acceleration="1.31"/>
        <vehicle id="leader" x="622.08" y="747.99" angle="74.99" type="DEFAULT_VEHTYPE" speed="14.73" pos="65.61" lane="E2_0" slope="0.00" acceleration="1.03"/>
    </timestep>
    <timestep time="5.10">
        <vehicle id="follower" x="589.15" y="739.16" angle="74.99" type="DEFAULT_VEHTYPE" speed="14.49" pos="31.52" lane="E2_0" slope="0.00" acceleration="2.16"/>
        <vehicle id="leader" x="623.50" y="748.37" angle="74.99" type="DEFAULT_VEHTYPE" speed="14.73" pos="67.09" lane="E2_0" slope="0.00" acceleration="0.00"/>
    </timestep>
    <timestep time="5.20">
        <vehicle id="follower" x="590.56" y="739.54" angle="74.99" type="DEFAULT_VEHTYPE" speed="14.68" pos="32.99" lane="E2_0" slope="0.00" acceleration="1.86"/>
        <vehicle id="leader" x="624.93" y="748.75" angle="74.99" type="DEFAULT_VEHTYPE" speed="14.81" pos="68.57" lane="E2_0" slope="0.00" acceleration="0.79"/>
    </timestep>
    <timestep time="5.30">
        <vehicle id="follower" x="592.01" y="739.93" angle="74.99" type="DEFAULT_VEHTYPE" speed="14.91" pos="34.48" lane="E2_0" slope="0.00" acceleration="2.37"/>
        <vehicle id="leader" x="626.37" y="749.14" angle="74.99" type="DEFAULT_VEHTYPE" speed="14.88" pos="70.06" lane="E2_0" slope="0.00" acceleration="0.63"/>
    </timestep>
    <timestep time="5.40">
        <vehicle id="follower" x="593.47" y="740.32" angle="74.99" type="DEFAULT_VEHTYPE" speed="15.16" pos="36.00" lane="E2_0" slope="0.00" acceleration="2.50"/>
        <vehicle id="leader" x="627.82" y="749.53" angle="74.99" type="DEFAULT_VEHTYPE" speed="15.02" pos="71.56" lane="E2_0" slope="0.00" acceleration="1.44"/>
    </timestep>
    <timestep time="5.50">
        <vehicle id="follower" x="594.96" y="740.72" angle="74.99" type="DEFAULT_VEHTYPE" speed="15.38" pos="37.54" lane="E2_0" slope="0.00" acceleration="2.14"/>
        <vehicle id="leader" x="629.27" y="749.92" angle="74.99" type="DEFAULT_VEHTYPE" speed="14.99" pos="73.06" lane="E2_0" slope="0.00" acceleration="-0.29"/>
    </timestep>
    <timestep time="5.60">
        <vehicle id="follower" x="596.46" y="741.12" angle="74.99" type="DEFAULT_VEHTYPE" speed="15.61" pos="39.10" lane="E2_0" slope="0.00" acceleration="2.32"/>
        <vehicle id="leader" x="630.72" y="750.31" angle="74.99" type="DEFAULT_VEHTYPE" speed="15.06" pos="74.56" lane="E2_0" slope="0.00" acceleration="0.75"/>
    </timestep>
    <timestep time="5.70">
        <vehicle id="follower" x="597.99" y="741.53" angle="74.99" type="DEFAULT_VEHTYPE" speed="15.82" pos="40.68" lane="E2_0" slope="0.00" acceleration="2.05"/>
        <vehicle id="leader" x="632.19" y="750.70" angle="74.99" type="DEFAULT_VEHTYPE" speed="15.22" pos="76.09" lane="E2_0" slope="0.00" acceleration="1.51"/>
    </timestep>
    <timestep time="5.80">
        <vehicle id="follower" x="599.54" y="741.95" angle="74.99" type="DEFAULT_VEHTYPE" speed="16.03" pos="42.28" lane="E2_0" slope="0.00" acceleration="2.09"/>
        <vehicle id="leader" x="633.65" y="751.09" angle="74.99" type="DEFAULT_VEHTYPE" speed="15.16" pos="77.60" lane="E2_0" slope="0.00" acceleration="-0.53"/>
    </timestep>
    <timestep time="5.90">
        <vehicle id="follower" x="601.10" y="742.37" angle="74.99" type="DEFAULT_VEHTYPE" speed="16.18" pos="43.90" lane="E2_0" slope="0.00" acceleration="1.53"/>
        <vehicle id="leader" x="635.12" y="751.49" angle="74.99" type="DEFAULT_VEHTYPE" speed="15.16" pos="79.12" lane="E2_0" slope="0.00" acceleration="-0.06"/>
    </timestep>
    <timestep time="6.00">
        <vehicle id="follower" x="602.68" y="742.79" angle="74.99" type="DEFAULT_VEHTYPE" speed="16.38" pos="45.54" lane="E2_0" slope="0.00" acceleration="2.06"/>
        <vehicle id="leader" x="636.57" y="751.88" angle="74.99" type="DEFAULT_VEHTYPE" speed="15.06" pos="80.62" lane="E2_0" slope="0.00" acceleration="-0.98"/>
    </timestep>
    <timestep time="6.10">
        <vehicle id="follower" x="604.28" y="743.22" angle="74.99" type="DEFAULT_VEHTYPE" speed="16.52" pos="47.19" lane="E2_0" slope="0.00" acceleration="1.33"/>
        <vehicle id="leader" x="638.03" y="752.27" angle="74.99" type="DEFAULT_VEHTYPE" speed="15.12" pos="82.13" lane="E2_0" slope="0.00" acceleration="0.59"/>
    </timestep>
    <timestep time="6.20">
        <vehicle id="follower" x="605.90" y="743.65" angle="74.99" type="DEFAULT_VEHTYPE" speed="16.74" pos="48.86" lane="E2_0" slope="0.00" acceleration="2.21"/>
        <vehicle id="leader" x="639.50" y="752.66" angle="74.99" type="DEFAULT_VEHTYPE" speed="15.16" pos="83.65" lane="E2_0" slope="0.00" acceleration="0.46"/>
    </timestep>
    <timestep time="6.30">
        <vehicle id="follower" x="607.53" y="744.09" angle="74.99" type="DEFAULT_VEHTYPE" speed="16.88" pos="50.55" lane="E2_0" slope="0.00" acceleration="1.46"/>
        <vehicle id="leader" x="640.99" y="753.06" angle="74.99" type="DEFAULT_VEHTYPE" speed="15.40" pos="85.19" lane="E2_0" slope="0.00" acceleration="2.37"/>
    </timestep>
    <timestep time="6.40">
        <vehicle id="follower" x="609.17" y="744.53" angle="74.99" type="DEFAULT_VEHTYPE" speed="17.02" pos="52.25" lane="E2_0" slope="0.00" acceleration="1.40"/>
        <vehicle id="leader" x="642.50" y="753.46" angle="74.99" type="DEFAULT_VEHTYPE" speed="15.63" pos="86.75" lane="E2_0" slope="0.00" acceleration="2.25"/>
    </timestep>
    <timestep time="6.50">
        <vehicle id="follower" x="610.83" y="744.98" angle="74.99" type="DEFAULT_VEHTYPE" speed="17.23" pos="53.98" lane="E2_0" slope="0.00" acceleration="2.05"/>
        <vehicle id="leader" x="644.02" y="753.87" angle="74.99" type="DEFAULT_VEHTYPE" speed="15.74" pos="88.33" lane="E2_0" slope="0.00" acceleration="1.11"/>
    </timestep>
    <timestep time="6.60">
        <vehicle id="follower" x="612.52" y="745.43" angle="74.99" type="DEFAULT_VEHTYPE" speed="17.43" pos="55.72" lane="E2_0" slope="0.00" acceleration="2.01"/>
        <vehicle id="leader" x="645.54" y="754.28" angle="74.99" type="DEFAULT_VEHTYPE" speed="15.76" pos="89.90" lane="E2_0" slope="0.00" acceleration="0.24"/>
    </timestep>
    <timestep time="6.70">
        <vehicle id="follower" x="614.22" y="745.88" angle="74.99" type="DEFAULT_VEHTYPE" speed="17.61" pos="57.48" lane="E2_0" slope="0.00" acceleration="1.85"/>
        <vehicle id="leader" x="647.07" y="754.69" angle="74.99" type="DEFAULT_VEHTYPE" speed="15.87" pos="91.49" lane="E2_0" slope="0.00" acceleration="1.07"/>
    </timestep>
    <timestep time="6.80">
        <vehicle id="follower" x="615.94" y="746.35" angle="74.99" type="DEFAULT_VEHTYPE" speed="17.84" pos="59.26" lane="E2_0" slope="0.00" acceleration="2.21"/>
        <vehicle id="leader" x="648.61" y="755.10" angle="74.99" type="DEFAULT_VEHTYPE" speed="15.90" pos="93.08" lane="E2_0" slope="0.00" acceleration="0.30"/>
    </timestep>
    <timestep time="6.90">
        <vehicle id="follower" x="617.69" y="746.81" angle="74.99" type="DEFAULT_VEHTYPE" speed="18.05" pos="61.07" lane="E2_0" slope="0.00" acceleration="2.15"/>
        <vehicle id="leader" x="650.16" y="755.52" angle="74.99" type="DEFAULT_VEHTYPE" speed="16.11" pos="94.69" lane="E2_0" slope="0.00" acceleration="2.10"/>
    </timestep>
    <timestep time="7.00">
        <vehicle id="follower" x="619.44" y="747.28" angle="74.99" type="DEFAULT_VEHTYPE" speed="18.20" pos="62.89" lane="E2_0" slope="0.00" acceleration="1.46"/>
        <vehicle id="leader" x="651.71" y="755.94" angle="74.99" type="DEFAULT_VEHTYPE" speed="16.07" pos="96.30" lane="E2_0" slope="0.00" acceleration="-0.36"/>
    </timestep>
    <timestep time="7.10">
        <vehicle id="follower" x="621.19" y="747.75" angle="74.99" type="DEFAULT_VEHTYPE" speed="18.06" pos="64.69" lane="E2_0" slope="0.00" acceleration="-1.41"/>
        <vehicle id="leader" x="653.27" y="756.35" angle="74.99" type="DEFAULT_VEHTYPE" speed="16.07" pos="97.91" lane="E2_0" slope="0.00" acceleration="0.00"/>
    </timestep>
    <timestep time="7.20">
        <vehicle id="follower" x="622.93" y="748.22" angle="74.99" type="DEFAULT_VEHTYPE" speed="18.07" pos="66.50" lane="E2_0" slope="0.00" acceleration="0.10"/>
        <vehicle id="leader" x="654.82" y="756.77" angle="74.99" type="DEFAULT_VEHTYPE" speed="16.07" pos="99.51" lane="E2_0" slope="0.00" acceleration="0.00"/>
    </timestep>
    <timestep time="7.30">
        <vehicle id="follower" x="624.68" y="748.69" angle="74.99" type="DEFAULT_VEHTYPE" speed="18.05" pos="68.31" lane="E2_0" slope="0.00" acceleration="-0.19"/>
        <vehicle id="leader" x="656.37" y="757.18" angle="74.99" type="DEFAULT_VEHTYPE" speed="16.07" pos="101.12" lane="E2_0" slope="0.00" acceleration="0.00"/>
    </timestep>
    <timestep time="7.40">
        <vehicle id="follower" x="626.42" y="749.15" angle="74.99" type="DEFAULT_VEHTYPE" speed="18.01" pos="70.11" lane="E2_0" slope="0.00" acceleration="-0.42"/>
        <vehicle id="leader" x="657.92" y="757.60" angle="74.99" type="DEFAULT_VEHTYPE" speed="16.07" pos="102.73" lane="E2_0" slope="0.00" acceleration="0.00"/>
    </timestep>
    <timestep time="7.50">
        <vehicle id="follower" x="628.15" y="749.62" angle="74.99" type="DEFAULT_VEHTYPE" speed="17.94" pos="71.90" lane="E2_0" slope="0.00" acceleration="-0.69"/>
        <vehicle id="leader" x="659.48" y="758.02" angle="74.99" type="DEFAULT_VEHTYPE" speed="16.07" pos="104.34" lane="E2_0" slope="0.00" acceleration="0.00"/>
    </timestep>
    <timestep time="7.60">
        <vehicle id="follower" x="629.88" y="750.08" angle="74.99" type="DEFAULT_VEHTYPE" speed="17.94" pos="73.69" lane="E2_0" slope="0.00" acceleration="0.05"/>
        <vehicle id="leader" x="661.02" y="758.43" angle="74.99" type="DEFAULT_VEHTYPE" speed="16.01" pos="105.94" lane="E2_0" slope="0.00" acceleration="-0.66"/>
    </timestep>
    <timestep time="7.70">
        <vehicle id="follower" x="631.60" y="750.54" angle="74.99" type="DEFAULT_VEHTYPE" speed="17.77" pos="75.47" lane="E2_0" slope="0.00" acceleration="-1.69"/>
        <vehicle id="leader" x="662.57" y="758.85" angle="74.99" type="DEFAULT_VEHTYPE" speed="16.04" pos="107.54" lane="E2_0" slope="0.00" acceleration="0.34"/>
    </timestep>
    <timestep time="7.80">
        <vehicle id="follower" x="633.31" y="751.00" angle="74.99" type="DEFAULT_VEHTYPE" speed="17.74" pos="77.24" lane="E2_0" slope="0.00" acceleration="-0.33"/>
        <vehicle id="leader" x="664.13" y="759.26" angle="74.99" type="DEFAULT_VEHTYPE" speed="16.16" pos="109.16" lane="E2_0" slope="0.00" acceleration="1.17"/>
    </timestep>
    <timestep time="7.90">
        <vehicle id="follower" x="635.03" y="751.46" angle="74.99" type="DEFAULT_VEHTYPE" speed="17.78" pos="79.02" lane="E2_0" slope="0.00" acceleration="0.44"/>
        <vehicle id="leader" x="665.70" y="759.68" angle="74.99" type="DEFAULT_VEHTYPE" speed="16.18" pos="110.77" lane="E2_0" slope="0.00" acceleration="0.21"/>
    </timestep>
    <timestep time="8.00">
        <vehicle id="follower" x="636.75" y="751.92" angle="74.99" type="DEFAULT_VEHTYPE" speed="17.80" pos="80.80" lane="E2_0" slope="0.00" acceleration="0.13"/>
        <vehicle id="leader" x="667.26" y="760.10" angle="74.99" type="DEFAULT_VEHTYPE" speed="16.15" pos="112.39" lane="E2_0" slope="0.00" acceleration="-0.31"/>
    </timestep>
    <timestep time="8.10">
        <vehicle id="follower" x="638.46" y="752.38" angle="74.99" type="DEFAULT_VEHTYPE" speed="17.75" pos="82.58" lane="E2_0" slope="0.00" acceleration="-0.46"/>
        <vehicle id="leader" x="668.82" y="760.52" angle="74.99" type="DEFAULT_VEHTYPE" speed="16.22" pos="114.01" lane="E2_0" slope="0.00" acceleration="0.68"/>
    </timestep>
    <timestep time="8.20">
        <vehicle id="follower" x="640.18" y="752.84" angle="74.99" type="DEFAULT_VEHTYPE" speed="17.79" pos="84.36" lane="E2_0" slope="0.00" acceleration="0.45"/>
        <vehicle id="leader" x="670.40" y="760.94" angle="74.99" type="DEFAULT_VEHTYPE" speed="16.32" pos="115.64" lane="E2_0" slope="0.00" acceleration="1.06"/>
    </timestep>
    <timestep time="8.30">
        <vehicle id="follower" x="641.90" y="753.30" angle="74.99" type="DEFAULT_VEHTYPE" speed="17.81" pos="86.14" lane="E2_0" slope="0.00" acceleration="0.20"/>
        <vehicle id="leader" x="671.97" y="761.37" angle="74.99" type="DEFAULT_VEHTYPE" speed="16.31" pos="117.27" lane="E2_0" slope="0.00" acceleration="-0.11"/>
    </timestep>
    <timestep time="8.40">
        <vehicle id="follower" x="643.62" y="753.77" angle="74.99" type="DEFAULT_VEHTYPE" speed="17.84" pos="87.92" lane="E2_0" slope="0.00" acceleration="0.25"/>
        <vehicle id="leader" x="673.55" y="761.79" angle="74.99" type="DEFAULT_VEHTYPE" speed="16.27" pos="118.90" lane="E2_0" slope="0.00" acceleration="-0.38"/>
    </timestep>
    <timestep time="8.50">
        <vehicle id="follower" x="645.33" y="754.22" angle="74.99" type="DEFAULT_VEHTYPE" speed="17.71" pos="89.69" lane="E2_0" slope="0.00" acceleration="-1.30"/>
        <vehicle id="leader" x="675.12" y="762.21" angle="74.99" type="DEFAULT_VEHTYPE" speed="16.30" pos="120.53" lane="E2_0" slope="0.00" acceleration="0.24"/>
    </timestep>
    <timestep time="8.60">
        <vehicle id="follower" x="647.04" y="754.68" angle="74.99" type="DEFAULT_VEHTYPE" speed="17.66" pos="91.46" lane="E2_0" slope="0.00" acceleration="-0.51"/>
        <vehicle id="leader" x="676.70" y="762.63" angle="74.99" type="DEFAULT_VEHTYPE" speed="16.40" pos="122.17" lane="E2_0" slope="0.00" acceleration="1.00"/>
    </timestep>
    <timestep time="8.70">
        <vehicle id="follower" x="648.76" y="755.14" angle="74.99" type="DEFAULT_VEHTYPE" speed="17.83" pos="93.24" lane="E2_0" slope="0.00" acceleration="1.69"/>
        <vehicle id="leader" x="678.30" y="763.06" angle="74.99" type="DEFAULT_VEHTYPE" speed="16.54" pos="123.82" lane="E2_0" slope="0.00" acceleration="1.39"/>
    </timestep>
    <timestep time="8.80">
        <vehicle id="follower" x="650.48" y="755.60" angle="74.99" type="DEFAULT_VEHTYPE" speed="17.79" pos="95.02" lane="E2_0" slope="0.00" acceleration="-0.38"/>
        <vehicle id="leader" x="679.90" y="763.49" angle="74.99" type="DEFAULT_VEHTYPE" speed="16.60" pos="125.48" lane="E2_0" slope="0.00" acceleration="0.67"/>
    </timestep>
    <timestep time="8.90">
        <vehicle id="follower" x="652.20" y="756.07" angle="74.99" type="DEFAULT_VEHTYPE" speed="17.81" pos="96.80" lane="E2_0" slope="0.00" acceleration="0.23"/>
        <vehicle id="leader" x="681.51" y="763.92" angle="74.99" type="DEFAULT_VEHTYPE" speed="16.60" pos="127.14" lane="E2_0" slope="0.00" acceleration="0.00"/>
    </timestep>
    <timestep time="9.00">
        <vehicle id="follower" x="653.93" y="756.53" angle="74.99" type="DEFAULT_VEHTYPE" speed="17.86" pos="98.59" lane="E2_0" slope="0.00" acceleration="0.48"/>
        <vehicle id="leader" x="683.11" y="764.35" angle="74.99" type="DEFAULT_VEHTYPE" speed="16.60" pos="128.80" lane="E2_0" slope="0.00" acceleration="0.00"/>
    </timestep>
    <timestep time="9.10">
        <vehicle id="follower" x="655.65" y="756.99" angle="74.99" type="DEFAULT_VEHTYPE" speed="17.82" pos="100.37" lane="E2_0" slope="0.00" acceleration="-0.42"/>
        <vehicle id="leader" x="684.72" y="764.78" angle="74.99" type="DEFAULT_VEHTYPE" speed="16.65" pos="130.47" lane="E2_0" slope="0.00" acceleration="0.48"/>
    </timestep>
    <timestep time="9.20">
        <vehicle id="follower" x="657.38" y="757.45" angle="74.99" type="DEFAULT_VEHTYPE" speed="17.89" pos="102.16" lane="E2_0" slope="0.00" acceleration="0.73"/>