<?xml version="1.0" encoding="UTF-8"?>

<!-- generated on 2023-04-09 14:16:30 by Eclipse SUMO sumo Version 1.16.0
<configuration xmlns:xsi="http://www.w3.org/2001/XMLSchema-instance" xsi:noNamespaceSchemaLocation="http://sumo.dlr.de/xsd/sumoConfiguration.xsd">

    <input>
        <net-file value="c:\Users\aryak\Projects\cf-sumo\sumo-xml\net.net.xml"/>
    </input>

    <output>
        <fcd-output value="c:\Users\aryak\Projects\cf-sumo\sumo-xml\output\140_fcd.xml"/>
        <fcd-output.acceleration value="true"/>
    </output>

    <time>
        <step-length value="0.1"/>
    </time>

    <report>
        <no-step-log value="true"/>
    </report>

    <traci_server>
        <remote-port value="57600"/>
    </traci_server>

</configuration>
-->

<fcd-export xmlns:xsi="http://www.w3.org/2001/XMLSchema-instance" xsi:noNamespaceSchemaLocation="http://sumo.dlr.de/xsd/fcd_file.xsd">
    <timestep time="0.00">
        <vehicle id="leader" x="563.63" y="732.32" angle="74.99" type="DEFAULT_VEHTYPE@leader" speed="10.35" pos="5.10" lane="E2_0" slope="0.00" acceleration="0.00"/>
    </timestep>
    <timestep time="0.10">
        <vehicle id="leader" x="564.65" y="732.59" angle="74.99" type="DEFAULT_VEHTYPE@leader" speed="10.55" pos="6.15" lane="E2_0" slope="0.00" acceleration="2.00"/>
    </timestep>
    <timestep time="0.20">
        <vehicle id="leader" x="565.67" y="732.87" angle="74.99" type="DEFAULT_VEHTYPE@leader" speed="10.63" pos="7.22" lane="E2_0" slope="0.00" acceleration="0.80"/>
    </timestep>
    <timestep time="0.30">
        <vehicle id="leader" x="566.69" y="733.14" angle="74.99" type="DEFAULT_VEHTYPE@leader" speed="10.53" pos="8.27" lane="E2_0" slope="0.00" acceleration="-1.00"/>
    </timestep>
    <timestep time="0.40">
        <vehicle id="leader" x="567.70" y="733.41" angle="74.99" type="DEFAULT_VEHTYPE@leader" speed="10.48" pos="9.32" lane="E2_0" slope="0.00" acceleration="-0.50"/>
    </timestep>
    <timestep time="0.50">
        <vehicle id="leader" x="568.73" y="733.69" angle="74.99" type="DEFAULT_VEHTYPE@leader" speed="10.66" pos="10.39" lane="E2_0" slope="0.00" acceleration="1.80"/>
    </timestep>
    <timestep time="0.60">
        <vehicle id="leader" x="569.77" y="733.97" angle="74.99" type="DEFAULT_VEHTYPE@leader" speed="10.78" pos="11.46" lane="E2_0" slope="0.00" acceleration="1.20"/>
    </timestep>
    <timestep time="0.70">
        <vehicle id="leader" x="570.81" y="734.25" angle="74.99" type="DEFAULT_VEHTYPE@leader" speed="10.78" pos="12.54" lane="E2_0" slope="0.00" acceleration="0.00"/>
    </timestep>
    <timestep time="0.80">
        <vehicle id="leader" x="571.85" y="734.53" angle="74.99" type="DEFAULT_VEHTYPE@leader" speed="10.78" pos="13.62" lane="E2_0" slope="0.00" acceleration="0.00"/>
    </timestep>
    <timestep time="0.90">
        <vehicle id="leader" x="572.90" y="734.81" angle="74.99" type="DEFAULT_VEHTYPE@leader" speed="10.82" pos="14.70" lane="E2_0" slope="0.00" acceleration="0.40"/>
    </timestep>
    <timestep time="1.00">
        <vehicle id="leader" x="573.94" y="735.09" angle="74.99" type="DEFAULT_VEHTYPE@leader" speed="10.82" pos="15.78" lane="E2_0" slope="0.00" acceleration="0.00"/>
    </timestep>
    <timestep time="1.10">
        <vehicle id="leader" x="574.99" y="735.37" angle="74.99" type="DEFAULT_VEHTYPE@leader" speed="10.82" pos="16.87" lane="E2_0" slope="0.00" acceleration="0.00"/>
    </timestep>
    <timestep time="1.20">
        <vehicle id="leader" x="576.03" y="735.65" angle="74.99" type="DEFAULT_VEHTYPE@leader" speed="10.82" pos="17.95" lane="E2_0" slope="0.00" acceleration="0.00"/>
    </timestep>
    <timestep time="1.30">
        <vehicle id="leader" x="577.10" y="735.93" angle="74.99" type="DEFAULT_VEHTYPE@leader" speed="11.07" pos="19.05" lane="E2_0" slope="0.00" acceleration="2.50"/>
    </timestep>
    <timestep time="1.40">
        <vehicle id="leader" x="578.18" y="736.22" angle="74.99" type="DEFAULT_VEHTYPE@leader" speed="11.16" pos="20.17" lane="E2_0" slope="0.00" acceleration="0.90"/>
    </timestep>
    <timestep time="1.50">
        <vehicle id="leader" x="579.26" y="736.51" angle="74.99" type="DEFAULT_VEHTYPE@leader" speed="11.19" pos="21.29" lane="E2_0" slope="0.00" acceleration="0.30"/>
    </timestep>
    <timestep time="1.60">
        <vehicle id="leader" x="580.35" y="736.80" angle="74.99" type="DEFAULT_VEHTYPE@leader" speed="11.27" pos="22.42" lane="E2_0" slope="0.00" acceleration="0.80"/>
    </timestep>
    <timestep time="1.70">
        <vehicle id="leader" x="581.44" y="737.10" angle="74.99" type="DEFAULT_VEHTYPE@leader" speed="11.27" pos="23.54" lane="E2_0" slope="0.00" acceleration="0.00"/>
    </timestep>
    <timestep time="1.80">
        <vehicle id="leader" x="582.53" y="737.39" angle="74.99" type="DEFAULT_VEHTYPE@leader" speed="11.27" pos="24.67" lane="E2_0" slope="0.00" acceleration="0.00"/>
    </timestep>
    <timestep time="1.90">
        <vehicle id="leader" x="583.64" y="737.68" angle="74.99" type="DEFAULT_VEHTYPE@leader" speed="11.46" pos="25.82" lane="E2_0" slope="0.00" acceleration="1.90"/>
    </timestep>
    <timestep time="2.00">
        <vehicle id="leader" x="584.75" y="737.98" angle="74.99" type="DEFAULT_VEHTYPE@leader" speed="11.51" pos="26.97" lane="E2_0" slope="0.00" acceleration="0.50"/>
    </timestep>
    <timestep time="2.10">
        <vehicle id="leader" x="585.87" y="738.28" angle="74.99" type="DEFAULT_VEHTYPE@leader" speed="11.63" pos="28.13" lane="E2_0" slope="0.00" acceleration="1.20"/>
    </timestep>
    <timestep time="2.20">
        <vehicle id="leader" x="587.01" y="738.59" angle="74.99" type="DEFAULT_VEHTYPE@leader" speed="11.76" pos="29.31" lane="E2_0" slope="0.00" acceleration="1.30"/>
    </timestep>
    <timestep time="2.30">
        <vehicle id="leader" x="588.15" y="738.89" angle="74.99" type="DEFAULT_VEHTYPE@leader" speed="11.82" pos="30.49" lane="E2_0" slope="0.00" acceleration="0.60"/>
    </timestep>
    <timestep time="2.40">
        <vehicle id="leader" x="589.29" y="739.20" angle="74.99" type="DEFAULT_VEHTYPE@leader" speed="11.82" pos="31.67" lane="E2_0" slope="0.00" acceleration="0.00"/>
    </timestep>
    <timestep time="2.50">
        <vehicle id="leader" x="590.43" y="739.51" angle="74.99" type="DEFAULT_VEHTYPE@leader" speed="11.84" pos="32.85" lane="E2_0" slope="0.00" acceleration="0.20"/>
    </timestep>
    <timestep time="2.60">
        <vehicle id="leader" x="591.60" y="739.82" angle="74.99" type="DEFAULT_VEHTYPE@leader" speed="12.04" pos="34.06" lane="E2_0" slope="0.00" acceleration="2.00"/>
    </timestep>
    <timestep time="2.70">
        <vehicle id="leader" x="592.76" y="740.13" angle="74.99" type="DEFAULT_VEHTYPE@leader" speed="12.04" pos="35.26" lane="E2_0" slope="0.00" acceleration="0.00"/>
    </timestep>
    <timestep time="2.80">
        <vehicle id="leader" x="593.94" y="740.45" angle="74.99" type="DEFAULT_VEHTYPE@leader" speed="12.19" pos="36.48" lane="E2_0" slope="0.00" acceleration="1.50"/>
    </timestep>
    <timestep time="2.90">
        <vehicle id="leader" x="595.13" y="740.77" angle="74.99" type="DEFAULT_VEHTYPE@leader" speed="12.37" pos="37.72" lane="E2_0" slope="0.00" acceleration="1.80"/>
    </timestep>
    <timestep time="3.00">
        <vehicle id="follower" x="563.63" y="732.32" angle="74.99" type="DEFAULT_VEHTYPE@follower" speed="10.35" pos="5.10" lane="E2_0" slope="0.00" acceleration="0.00"/>
        <vehicle id="leader" x="596.33" y="741.09" angle="74.99" type="DEFAULT_VEHTYPE@leader" speed="12.37" pos="38.95" lane="E2_0" slope="0.00" acceleration="0.00"/>
    </timestep>
    <timestep time="3.10">
        <vehicle id="follower" x="564.65" y="732.60" angle="74.99" type="DEFAULT_VEHTYPE@follower" speed="10.60" pos="6.16" lane="E2_0" slope="0.00" acceleration="2.52"/>
        <vehicle id="leader" x="597.52" y="741.41" angle="74.99" type="DEFAULT_VEHTYPE@leader" speed="12.37" pos="40.19" lane="E2_0" slope="0.00" acceleration="0.00"/>
    </timestep>
    <timestep time="3.20">
        <vehicle id="follower" x="565.70" y="732.88" angle="74.99" type="DEFAULT_VEHTYPE@follower" speed="10.87" pos="7.25" lane="E2_0" slope="0.00" acceleration="2.73"/>
        <vehicle id="leader" x="598.72" y="741.73" angle="74.99" type="DEFAULT_VEHTYPE@leader" speed="12.37" pos="41.43" lane="E2_0" slope="0.00" acceleration="0.00"/>
    </timestep>
    <timestep time="3.30">
        <vehicle id="follower" x="566.78" y="733.17" angle="74.99" type="DEFAULT_VEHTYPE@follower" speed="11.17" pos="8.36" lane="E2_0" slope="0.00" acceleration="2.92"/>
        <vehicle id="leader" x="599.91" y="742.05" angle="74.99" type="DEFAULT_VEHTYPE@leader" speed="12.37" pos="42.67" lane="E2_0" slope="0.00" acceleration="0.00"/>
    </timestep>
    <timestep time="3.40">
        <vehicle id="follower" x="567.88" y="733.46" angle="74.99" type="DEFAULT_VEHTYPE@follower" speed="11.41" pos="9.51" lane="E2_0" slope="0.00" acceleration="2.47"/>
        <vehicle id="leader" x="601.11" y="742.37" angle="74.99" type="DEFAULT_VEHTYPE@leader" speed="12.37" pos="43.90" lane="E2_0" slope="0.00" acceleration="0.00"/>
    </timestep>
    <timestep time="3.50">
        <vehicle id="follower" x="569.01" y="733.76" angle="74.99" type="DEFAULT_VEHTYPE@follower" speed="11.69" pos="10.67" lane="E2_0" slope="0.00" acceleration="2.78"/>
        <vehicle id="leader" x="602.31" y="742.69" angle="74.99" type="DEFAULT_VEHTYPE@leader" speed="12.45" pos="45.15" lane="E2_0" slope="0.00" acceleration="0.80"/>
    </timestep>
    <timestep time="3.60">
        <vehicle id="follower" x="570.15" y="734.07" angle="74.99" type="DEFAULT_VEHTYPE@follower" speed="11.84" pos="11.86" lane="E2_0" slope="0.00" acceleration="1.53"/>
        <vehicle id="leader" x="603.52" y="743.02" angle="74.99" type="DEFAULT_VEHTYPE@leader" speed="12.56" pos="46.40" lane="E2_0" slope="0.00" acceleration="1.10"/>
    </timestep>
    <timestep time="3.70">
        <vehicle id="follower" x="571.32" y="734.38" angle="74.99" type="DEFAULT_VEHTYPE@follower" speed="12.11" pos="13.07" lane="E2_0" slope="0.00" acceleration="2.63"/>
        <vehicle id="leader" x="604.75" y="743.34" angle="74.99" type="DEFAULT_VEHTYPE@leader" speed="12.68" pos="47.67" lane="E2_0" slope="0.00" acceleration="1.20"/>
    </timestep>
    <timestep time="3.80">
        <vehicle id="follower" x="572.51" y="734.70" angle="74.99" type="DEFAULT_VEHTYPE@follower" speed="12.32" pos="14.30" lane="E2_0" slope="0.00" acceleration="2.12"/>
        <vehicle id="leader" x="606.00" y="743.68" angle="74.99" type="DEFAULT_VEHTYPE@leader" speed="12.93" pos="48.97" lane="E2_0" slope="0.00" acceleration="2.50"/>
    </timestep>
    <timestep time="3.90">
        <vehicle id="follower" x="573.72" y="735.03" angle="74.99" type="DEFAULT_VEHTYPE@follower" speed="12.49" pos="15.55" lane="E2_0" slope="0.00" acceleration="1.76"/>
        <vehicle id="leader" x="607.24" y="744.01" angle="74.99" type="DEFAULT_VEHTYPE@leader" speed="12.93" pos="50.26" lane="E2_0" slope="0.00" acceleration="0.00"/>
    </timestep>
    <timestep time="4.00">
        <vehicle id="follower" x="574.95" y="735.36" angle="74.99" type="DEFAULT_VEHTYPE@follower" speed="12.69" pos="16.82" lane="E2_0" slope="0.00" acceleration="1.97"/>
        <vehicle id="leader" x="608.50" y="744.35" angle="74.99" type="DEFAULT_VEHTYPE@leader" speed="13.03" pos="51.56" lane="E2_0" slope="0.00" acceleration="1.00"/>
    </timestep>
    <timestep time="4.10">
        <vehicle id="follower" x="576.19" y="735.69" angle="74.99" type="DEFAULT_VEHTYPE@follower" speed="12.90" pos="18.11" lane="E2_0" slope="0.00" acceleration="2.08"/>
        <vehicle id="leader" x="609.77" y="744.69" angle="74.99" type="DEFAULT_VEHTYPE@leader" speed="13.11" pos="52.87" lane="E2_0" slope="0.00" acceleration="0.80"/>
    </timestep>
    <timestep time="4.20">
        <vehicle id="follower" x="577.45" y="736.03" angle="74.99" type="DEFAULT_VEHTYPE@follower" speed="13.06" pos="19.42" lane="E2_0" slope="0.00" acceleration="1.58"/>
        <vehicle id="leader" x="611.06" y="745.04" angle="74.99" type="DEFAULT_VEHTYPE@leader" speed="13.35" pos="54.21" lane="E2_0" slope="0.00" acceleration="2.40"/>
    </timestep>
    <timestep time="4.30">
        <vehicle id="follower" x="578.74" y="736.37" angle="74.99" type="DEFAULT_VEHTYPE@follower" speed="13.31" pos="20.75" lane="E2_0" slope="0.00" acceleration="2.51"/>
        <vehicle id="leader" x="612.37" y="745.39" angle="74.99" type="DEFAULT_VEHTYPE@leader" speed="13.53" pos="55.56" lane="E2_0" slope="0.00" acceleration="1.80"/>
    </timestep>
    <timestep time="4.40">
        <vehicle id="follower" x="580.04" y="736.72" angle="74.99" type="DEFAULT_VEHTYPE@follower" speed="13.52" pos="22.10" lane="E2_0" slope="0.00" acceleration="2.10"/>
        <vehicle id="leader" x="613.71" y="745.75" angle="74.99" type="DEFAULT_VEHTYPE@leader" speed="13.94" pos="56.95" lane="E2_0" slope="0.00" acceleration="4.10"/>
    </timestep>
    <timestep time="4.50">
        <vehicle id="follower" x="581.37" y="737.08" angle="74.99" type="DEFAULT_VEHTYPE@follower" speed="13.67" pos="23.47" lane="E2_0" slope="0.00" acceleration="1.55"/>
        <vehicle id="leader" x="615.07" y="746.11" angle="74.99" type="DEFAULT_VEHTYPE@leader" speed="14.10" pos="58.36" lane="E2_0" slope="0.00" acceleration="1.60"/>
    </timestep>
    <timestep time="4.60">
        <vehicle id="follower" x="582.71" y="737.44" angle="74.99" type="DEFAULT_VEHTYPE@follower" speed="13.87" pos="24.85" lane="E2_0" slope="0.00" acceleration="2.01"/>
        <vehicle id="leader" x="616.46" y="746.48" angle="74.99" type="DEFAULT_VEHTYPE@leader" speed="14.36" pos="59.80" lane="E2_0" slope="0.00" acceleration="2.60"/>
    </timestep>
    <timestep time="4.70">
        <vehicle id="follower" x="584.07" y="737.80" angle="74.99" type="DEFAULT_VEHTYPE@follower" speed="14.17" pos="26.27" lane="E2_0" slope="0.00" acceleration="2.92"/>
        <vehicle id="leader" x="617.85" y="746.86" angle="74.99" type="DEFAULT_VEHTYPE@leader" speed="14.42" pos="61.24" lane="E2_0" slope="0.00" acceleration="0.60"/>
    </timestep>
    <timestep time="4.80">
        <vehicle id="follower" x="585.46" y="738.17" angle="74.99" type="DEFAULT_VEHTYPE@follower" speed="14.38" pos="27.71" lane="E2_0" slope="0.00" acceleration="2.15"/>
        <vehicle id="leader" x="619.26" y="747.24" angle="74.99" type="DEFAULT_VEHTYPE@leader" speed="14.58" pos="62.70" lane="E2_0" slope="0.00" acceleration="1.60"/>
    </timestep>
    <timestep time="4.90">
        <vehicle id="follower" x="586.88" y="738.55" angle="74.99" type="DEFAULT_VEHTYPE@follower" speed="14.67" pos="29.17" lane="E2_0" slope="0.00" acceleration="2.86"/>
        <vehicle id="leader" x="620.67" y="747.61" angle="74.99" type="DEFAULT_VEHTYPE@leader" speed="14.63" pos="64.16" lane="E2_0" slope="0.00" acceleration="0.50"/>
    </timestep>
    <timestep time="5.00">
        <vehicle id="follower" x="588.31" y="738.94" angle="74.99" type="DEFAULT_VEHTYPE@follower" speed="14.82" pos="30.66" lane="E2_0" slope="0.00" acceleration="1.49"/>
        <vehicle id="leader" x="622.10" y="748.00" angle="74.99" type="DEFAULT_VEHTYPE@leader" speed="14.73" pos="65.64" lane="E2_0" slope="0.00" acceleration="1.00"/>
    </timestep>
    <timestep time="5.10">
        <vehicle id="follower" x="589.77" y="739.33" angle="74.99" type="DEFAULT_VEHTYPE@follower" speed="15.06" pos="32.16" lane="E2_0" slope="0.00" acceleration="2.46"/>
        <vehicle id="leader" x="623.52" y="748.38" angle="74.99" type="DEFAULT_VEHTYPE@leader" speed="14.73" pos="67.11" lane="E2_0" slope="0.00" acceleration="0.00"/>
    </timestep>
    <timestep time="5.20">
        <vehicle id="follower" x="591.24" y="739.72" angle="74.99" type="DEFAULT_VEHTYPE@follower" speed="15.28" pos="33.69" lane="E2_0" slope="0.00" acceleration="2.12"/>
        <vehicle id="leader" x="624.95" y="748.76" angle="74.99" type="DEFAULT_VEHTYPE@leader" speed="14.81" pos="68.59" lane="E2_0" slope="0.00" acceleration="0.80"/>
    </timestep>
    <timestep time="5.30">
        <vehicle id="follower" x="592.74" y="740.13" angle="74.99" type="DEFAULT_VEHTYPE@follower" speed="15.54" pos="35.24" lane="E2_0" slope="0.00" acceleration="2.69"/>
        <vehicle id="leader" x="626.39" y="749.15" angle="74.99" type="DEFAULT_VEHTYPE@leader" speed="14.88" pos="70.08" lane="E2_0" slope="0.00" acceleration="0.70"/>
    </timestep>
    <timestep time="5.40">
        <vehicle id="follower" x="594.25" y="740.53" angle="74.99" type="DEFAULT_VEHTYPE@follower" speed="15.60" pos="36.80" lane="E2_0" slope="0.00" acceleration="0.54"/>
        <vehicle id="leader" x="627.84" y="749.53" angle="74.99" type="DEFAULT_VEHTYPE@leader" speed="15.02" pos="71.58" lane="E2_0" slope="0.00" acceleration="1.40"/>
    </timestep>
    <timestep time="5.50">
        <vehicle id="follower" x="595.76" y="740.93" angle="74.99" type="DEFAULT_VEHTYPE@follower" speed="15.63" pos="38.37" lane="E2_0" slope="0.00" acceleration="0.33"/>
        <vehicle id="leader" x="629.29" y="749.92" angle="74.99" type="DEFAULT_VEHTYPE@leader" speed="14.99" pos="73.08" lane="E2_0" slope="0.00" acceleration="-0.30"/>
    </timestep>
    <timestep time="5.60">
        <vehicle id="follower" x="597.27" y="741.34" angle="74.99" type="DEFAULT_VEHTYPE@follower" speed="15.62" pos="39.93" lane="E2_0" slope="0.00" acceleration="-0.09"/>
        <vehicle id="leader" x="630.74" y="750.31" angle="74.99" type="DEFAULT_VEHTYPE@leader" speed="15.06" pos="74.58" lane="E2_0" slope="0.00" acceleration="0.70"/>
    </timestep>
    <timestep time="5.70">
        <vehicle id="follower" x="598.78" y="741.74" angle="74.99" type="DEFAULT_VEHTYPE@follower" speed="15.62" pos="41.49" lane="E2_0" slope="0.00" acceleration="0.00"/>
        <vehicle id="leader" x="632.21" y="750.71" angle="74.99" type="DEFAULT_VEHTYPE@leader" speed="15.22" pos="76.11" lane="E2_0" slope="0.00" acceleration="1.60"/>
    </timestep>
    <timestep time="5.80">
        <vehicle id="follower" x="600.30" y="742.15" angle="74.99" type="DEFAULT_VEHTYPE@follower" speed="15.71" pos="43.06" lane="E2_0" slope="0.00" acceleration="0.91"/>
        <vehicle id="leader" x="633.68" y="751.10" angle="74.99" type="DEFAULT_VEHTYPE@leader" speed="15.16" pos="77.62" lane="E2_0" slope="0.00" acceleration="-0.60"/>
    </timestep>
    <timestep time="5.90">
        <vehicle id="follower" x="601.80" y="742.55" angle="74.99" type="DEFAULT_VEHTYPE@follower" speed="15.60" pos="44.62" lane="E2_0" slope="0.00" acceleration="-1.09"/>
        <vehicle id="leader" x="635.14" y="751.49" angle="74.99" type="DEFAULT_VEHTYPE@leader" speed="15.16" pos="79.14" lane="E2_0" slope="0.00" acceleration="0.00"/>
    </timestep>
    <timestep time="6.00">
        <vehicle id="follower" x="603.31" y="742.96" angle="74.99" type="DEFAULT_VEHTYPE@follower" speed="15.66" pos="46.19" lane="E2_0" slope="0.00" acceleration="0.53"/>
        <vehicle id="leader" x="636.59" y="751.88" angle="74.99" type="DEFAULT_VEHTYPE@leader" speed="15.06" pos="80.64" lane="E2_0" slope="0.00" acceleration="-1.00"/>
    </timestep>
    <timestep time="6.10">
        <vehicle id="follower" x="604.81" y="743.36" angle="74.99" type="DEFAULT_VEHTYPE@follower" speed="15.50" pos="47.74" lane="E2_0" slope="0.00" acceleration="-1.52"/>
        <vehicle id="leader" x="638.06" y="752.27" angle="74.99" type="DEFAULT_VEHTYPE@leader" speed="15.12" pos="82.16" lane="E2_0" slope="0.00" acceleration="0.60"/>
    </timestep>
    <timestep time="6.20">
        <vehicle id="follower" x="606.32" y="743.77" angle="74.99" type="DEFAULT_VEHTYPE@follower" speed="15.63" pos="49.30" lane="E2_0" slope="0.00" acceleration="1.29"/>
        <vehicle id="leader" x="639.52" y="752.67" angle="74.99" type="DEFAULT_VEHTYPE@leader" speed="15.16" pos="83.67" lane="E2_0" slope="0.00" acceleration="0.40"/>
    </timestep>
    <timestep time="6.30">
        <vehicle id="follower" x="607.83" y="744.17" angle="74.99" type="DEFAULT_VEHTYPE@follower" speed="15.56" pos="50.86" lane="E2_0" slope="0.00" acceleration="-0.70"/>
        <vehicle id="leader" x="641.01" y="753.06" angle="74.99" type="DEFAULT_VEHTYPE@leader" speed="15.40" pos="85.21" lane="E2_0" slope="0.00" acceleration="2.40"/>
    </timestep>
    <timestep time="6.40">
        <vehicle id="follower" x="609.34" y="744.58" angle="74.99" type="DEFAULT_VEHTYPE@follower" speed="15.70" pos="52.43" lane="E2_0" slope="0.00" acceleration="1.32"/>
        <vehicle id="leader" x="642.52" y="753.47" angle="74.99" type="DEFAULT_VEHTYPE@leader" speed="15.63" pos="86.78" lane="E2_0" slope="0.00" acceleration="2.30"/>
    </timestep>
    <timestep time="6.50">
        <vehicle id="follower" x="610.88" y="744.99" angle="74.99" type="DEFAULT_VEHTYPE@follower" speed="15.91" pos="54.02" lane="E2_0" slope="0.00" acceleration="2.12"/>
        <vehicle id="leader" x="644.04" y="753.88" angle="74.99" type="DEFAULT_VEHTYPE@leader" speed="15.74" pos="88.35" lane="E2_0" slope="0.00" acceleration="1.10"/>
    </timestep>
    <timestep time="6.60">
        <vehicle id="follower" x="612.42" y="745.40" angle="74.99" type="DEFAULT_VEHTYPE@follower" speed="15.97" pos="55.62" lane="E2_0" slope="0.00" acceleration="0.59"/>
        <vehicle id="leader" x="645.56" y="754.29" angle="74.99" type="DEFAULT_VEHTYPE@leader" speed="15.76" pos="89.93" lane="E2_0" slope="0.00" acceleration="0.20"/>
    </timestep>
    <timestep time="6.70">
        <vehicle id="follower" x="613.96" y="745.81" angle="74.99" type="DEFAULT_VEHTYPE@follower" speed="15.96" pos="57.21" lane="E2_0" slope="0.00" acceleration="-0.09"/>
        <vehicle id="leader" x="647.09" y="754.70" angle="74.99" type="DEFAULT_VEHTYPE@leader" speed="15.87" pos="91.51" lane="E2_0" slope="0.00" acceleration="1.10"/>
    </timestep>
    <timestep time="6.80">
        <vehicle id="follower" x="615.51" y="746.23" angle="74.99" type="DEFAULT_VEHTYPE@follower" speed="16.06" pos="58.82" lane="E2_0" slope="0.00" acceleration="1.07"/>
        <vehicle id="leader" x="648.63" y="755.11" angle="74.99" type="DEFAULT_VEHTYPE@leader" speed="15.90" pos="93.10" lane="E2_0" slope="0.00" acceleration="0.30"/>
    </timestep>
    <timestep time="6.90">
        <vehicle id="follower" x="617.07" y="746.65" angle="74.99" type="DEFAULT_VEHTYPE@follower" speed="16.07" pos="60.43" lane="E2_0" slope="0.00" acceleration="0.09"/>
        <vehicle id="leader" x="650.18" y="755.52" angle="74.99" type="DEFAULT_VEHTYPE@leader" speed="16.11" pos="94.71" lane="E2_0" slope="0.00" acceleration="2.10"/>
    </timestep>
    <timestep time="7.00">
        <vehicle id="follower" x="618.63" y="747.07" angle="74.99" type="DEFAULT_VEHTYPE@follower" speed="16.24" pos="62.05" lane="E2_0" slope="0.00" acceleration="1.64"/>
        <vehicle id="leader" x="651.74" y="755.94" angle="74.99" type="DEFAULT_VEHTYPE@leader" speed="16.07" pos="96.32" lane="E2_0" slope="0.00" acceleration="-0.40"/>
    </timestep>
    <timestep time="7.10">
        <vehicle id="follower" x="620.19" y="747.48" angle="74.99" type="DEFAULT_VEHTYPE@follower" speed="16.13" pos="63.66" lane="E2_0" slope="0.00" acceleration="-1.10"/>
        <vehicle id="leader" x="653.29" y="756.36" angle="74.99" type="DEFAULT_VEHTYPE@leader" speed="16.07" pos="97.93" lane="E2_0" slope="0.00" acceleration="0.00"/>
    </timestep>
    <timestep time="7.20">
        <vehicle id="follower" x="621.75" y="747.90" angle="74.99" type="DEFAULT_VEHTYPE@follower" speed="16.18" pos="65.28" lane="E2_0" slope="0.00" acceleration="0.55"/>
        <vehicle id="leader" x="654.84" y="756.77" angle="74.99" type="DEFAULT_VEHTYPE@leader" speed="16.07" pos="99.54" lane="E2_0" slope="0.00" acceleration="0.00"/>
    </timestep>
    <timestep time="7.30">
        <vehicle id="follower" x="623.32" y="748.32" angle="74.99" type="DEFAULT_VEHTYPE@follower" speed="16.20" pos="66.90" lane="E2_0" slope="0.00" acceleration="0.21"/>
        <vehicle id="leader" x="656.39" y="757.19" angle="74.99" type="DEFAULT_VEHTYPE@leader" speed="16.07" pos="101.14" lane="E2_0" slope="0.00" acceleration="0.00"/>
    </timestep>
    <timestep time="7.40">
        <vehicle id="follower" x="624.88" y="748.74" angle="74.99" type="DEFAULT_VEHTYPE@follower" speed="16.20" pos="68.52" lane="E2_0" slope="0.00" acceleration="-0.05"/>
        <vehicle id="leader" x="657.94" y="757.61" angle="74.99" type="DEFAULT_VEHTYPE@leader" speed="16.07" pos="102.75" lane="E2_0" slope="0.00" acceleration="0.00"/>
    </timestep>
    <timestep time="7.50">
        <vehicle id="follower" x="626.44" y="749.16" angle="74.99" type="DEFAULT_VEHTYPE@follower" speed="16.16" pos="70.14" lane="E2_0" slope="0.00" acceleration="-0.36"/>
        <vehicle id="leader" x="659.50" y="758.02" angle="74.99" type="DEFAULT_VEHTYPE@leader" speed="16.07" pos="104.36" lane="E2_0" slope="0.00" acceleration="0.00"/>
    </timestep>
    <timestep time="7.60">
        <vehicle id="follower" x="628.01" y="749.58" angle="74.99" type="DEFAULT_VEHTYPE@follower" speed="16.21" pos="71.76" lane="E2_0" slope="0.00" acceleration="0.47"/>
        <vehicle id="leader" x="661.04" y="758.44" angle="74.99" type="DEFAULT_VEHTYPE@leader" speed="16.01" pos="105.96" lane="E2_0" slope="0.00" acceleration="-0.60"/>
    </timestep>
    <timestep time="7.70">
        <vehicle id="follower" x="629.56" y="750.00" angle="74.99" type="DEFAULT_VEHTYPE@follower" speed="16.07" pos="73.36" lane="E2_0" slope="0.00" acceleration="-1.34"/>
        <vehicle id="leader" x="662.59" y="758.85" angle="74.99" type="DEFAULT_VEHTYPE@leader" speed="16.04" pos="107.56" lane="E2_0" slope="0.00" acceleration="0.30"/>
    </timestep>
    <timestep time="7.80">
        <vehicle id="follower" x="631.11" y="750.41" angle="74.99" type="DEFAULT_VEHTYPE@follower" speed="16.07" pos="74.97" lane="E2_0" slope="0.00" acceleration="-0.08"/>
        <vehicle id="leader" x="664.15" y="759.27" angle="74.99" type="DEFAULT_VEHTYPE@leader" speed="16.16" pos="109.18" lane="E2_0" slope="0.00" acceleration="1.20"/>
    </timestep>
    <timestep time="7.90">
        <vehicle id="follower" x="632.67" y="750.83" angle="74.99" type="DEFAULT_VEHTYPE@follower" speed="16.13" pos="76.58" lane="E2_0" slope="0.00" acceleration="0.66"/>
        <vehicle id="leader" x="665.72" y="759.69" angle="74.99" type="DEFAULT_VEHTYPE@leader" speed="16.18" pos="110.80" lane="E2_0" slope="0.00" acceleration="0.20"/>
    </timestep>
    <timestep time="8.00">
        <vehicle id="follower" x="634.24" y="751.25" angle="74.99" type="DEFAULT_VEHTYPE@follower" speed="16.18" pos="78.20" lane="E2_0" slope="0.00" acceleration="0.49"/>
        <vehicle id="leader" x="667.28" y="760.11" angle="74.99" type="DEFAULT_VEHTYPE@leader" speed="16.15" pos="112.41" lane="E2_0" slope="0.00" acceleration="-0.30"/>
    </timestep>
    <timestep time="8.10">
        <vehicle id="follower" x="635.80" y="751.67" angle="74.99" type="DEFAULT_VEHTYPE@follower" speed="16.17" pos="79.82" lane="E2_0" slope="0.00" acceleration="-0.08"/>
        <vehicle id="leader" x="668.84" y="760.53" angle="74.99" type="DEFAULT_VEHTYPE@leader" speed="16.22" pos="114.03" lane="E2_0" slope="0.00" acceleration="0.70"/>
    </timestep>
    <timestep time="8.20">
        <vehicle id="follower" x="637.37" y="752.09" angle="74.99" type="DEFAULT_VEHTYPE@follower" speed="16.25" pos="81.45" lane="E2_0" slope="0.00" acceleration="0.75"/>
        <vehicle id="leader" x="670.42" y="760.95" angle="74.99" type="DEFAULT_VEHTYPE@leader" speed="16.32" pos="115.66" lane="E2_0" slope="0.00" acceleration="1.00"/>
    </timestep>
    <timestep time="8.30">
        <vehicle id="follower" x="638.94" y="752.51" angle="74.99" type="DEFAULT_VEHTYPE@follower" speed="16.28" pos="83.07" lane="E2_0" slope="0.00" acceleration="0.32"/>
        <vehicle id="leader" x="671.99" y="761.37" angle="74.99" type="DEFAULT_VEHTYPE@leader" speed="16.31" pos="117.30" lane="E2_0" slope="0.00" acceleration="-0.10"/>
    </timestep>
    <timestep time="8.40">
        <vehicle id="follower" x="640.52" y="752.93" angle="74.99" type="DEFAULT_VEHTYPE@follower" speed="16.35" pos="84.71" lane="E2_0" slope="0.00" acceleration="0.67"/>
        <vehicle id="leader" x="673.57" y="761.79" angle="74.99" type="DEFAULT_VEHTYPE@leader" speed="16.27" pos="118.92" lane="E2_0" slope="0.00" acceleration="-0.40"/>
    </timestep>
    <timestep time="8.50">
        <vehicle id="follower" x="642.09" y="753.35" angle="74.99" type="DEFAULT_VEHTYPE@follower" speed="16.24" pos="86.33" lane="E2_0" slope="0.00" acceleration="-1.06"/>
        <vehicle id="leader" x="675.14" y="762.22" angle="74.99" type="DEFAULT_VEHTYPE@leader" speed="16.30" pos="120.55" lane="E2_0" slope="0.00" acceleration="0.30"/>
    </timestep>
    <timestep time="8.60">
        <vehicle id="follower" x="643.65" y="753.77" angle="74.99" type="DEFAULT_VEHTYPE@follower" speed="16.22" pos="87.95" lane="E2_0" slope="0.00" acceleration="-0.25"/>
        <vehicle id="leader" x="676.72" y="762.64" angle="74.99" type="DEFAULT_VEHTYPE@leader" speed="16.40" pos="122.19" lane="E2_0" slope="0.00" acceleration="1.00"/>
    </timestep>
    <timestep time="8.70">
        <vehicle id="follower" x="645.24" y="754.20" angle="74.99" type="DEFAULT_VEHTYPE@follower" speed="16.42" pos="89.60" lane="E2_0" slope="0.00" acceleration="2.03"/>
        <vehicle id="leader" x="678.32" y="763.07" angle="74.99" type="DEFAULT_VEHTYPE@leader" speed="16.54" pos="123.85" lane="E2_0" slope="0.00" acceleration="1.40"/>
    </timestep>
    <timestep time="8.80">
        <vehicle id="follower" x="646.82" y="754.62" angle="74.99" type="DEFAULT_VEHTYPE@follower" speed="16.38" pos="91.23" lane="E2_0" slope="0.00" acceleration="-0.41"/>
        <vehicle id="leader" x="679.93" y="763.50" angle="74.99" type="DEFAULT_VEHTYPE@leader" speed="16.60" pos="125.51" lane="E2_0" slope="0.00" acceleration="0.60"/>
    </timestep>
    <timestep time="8.90">