<?xml version="1.0" encoding="UTF-8"?>

<!-- generated on 2023-04-04 14:19:07 by Eclipse SUMO sumo Version 1.16.0
<configuration xmlns:xsi="http://www.w3.org/2001/XMLSchema-instance" xsi:noNamespaceSchemaLocation="http://sumo.dlr.de/xsd/sumoConfiguration.xsd">

    <input>
        <net-file value="c:\Users\aryak\Projects\cf-sumo\sumo-xml\net.net.xml"/>
    </input>

    <output>
        <fcd-output value="c:\Users\aryak\Projects\cf-sumo\sumo-xml\output\603_fcd.xml"/>
        <fcd-output.acceleration value="true"/>
    </output>

    <time>
        <step-length value="0.1"/>
    </time>

    <report>
        <no-step-log value="true"/>
    </report>

    <traci_server>
        <remote-port value="49330"/>
    </traci_server>

</configuration>
-->

<fcd-export xmlns:xsi="http://www.w3.org/2001/XMLSchema-instance" xsi:noNamespaceSchemaLocation="http://sumo.dlr.de/xsd/fcd_file.xsd">
    <timestep time="0.00">
        <vehicle id="leader" x="563.63" y="732.32" angle="74.99" type="DEFAULT_VEHTYPE@leader" speed="10.35" pos="5.10" lane="E2_0" slope="0.00" acceleration="0.00"/>
    </timestep>
    <timestep time="0.10">
        <vehicle id="leader" x="564.65" y="732.59" angle="74.99" type="DEFAULT_VEHTYPE@leader" speed="10.55" pos="6.15" lane="E2_0" slope="0.00" acceleration="2.00"/>
    </timestep>
    <timestep time="0.20">
        <vehicle id="leader" x="565.67" y="732.87" angle="74.99" type="DEFAULT_VEHTYPE@leader" speed="10.63" pos="7.22" lane="E2_0" slope="0.00" acceleration="0.80"/>
    </timestep>
    <timestep time="0.30">
        <vehicle id="leader" x="566.69" y="733.14" angle="74.99" type="DEFAULT_VEHTYPE@leader" speed="10.53" pos="8.27" lane="E2_0" slope="0.00" acceleration="-1.00"/>
    </timestep>
    <timestep time="0.40">
        <vehicle id="leader" x="567.70" y="733.41" angle="74.99" type="DEFAULT_VEHTYPE@leader" speed="10.48" pos="9.32" lane="E2_0" slope="0.00" acceleration="-0.50"/>
    </timestep>
    <timestep time="0.50">
        <vehicle id="leader" x="568.73" y="733.69" angle="74.99" type="DEFAULT_VEHTYPE@leader" speed="10.66" pos="10.39" lane="E2_0" slope="0.00" acceleration="1.80"/>
    </timestep>
    <timestep time="0.60">
        <vehicle id="leader" x="569.77" y="733.97" angle="74.99" type="DEFAULT_VEHTYPE@leader" speed="10.78" pos="11.46" lane="E2_0" slope="0.00" acceleration="1.20"/>
    </timestep>
    <timestep time="0.70">
        <vehicle id="leader" x="570.81" y="734.25" angle="74.99" type="DEFAULT_VEHTYPE@leader" speed="10.78" pos="12.54" lane="E2_0" slope="0.00" acceleration="0.00"/>
    </timestep>
    <timestep time="0.80">
        <vehicle id="leader" x="571.85" y="734.53" angle="74.99" type="DEFAULT_VEHTYPE@leader" speed="10.78" pos="13.62" lane="E2_0" slope="0.00" acceleration="0.00"/>
    </timestep>
    <timestep time="0.90">
        <vehicle id="leader" x="572.90" y="734.81" angle="74.99" type="DEFAULT_VEHTYPE@leader" speed="10.82" pos="14.70" lane="E2_0" slope="0.00" acceleration="0.40"/>
    </timestep>
    <timestep time="1.00">
        <vehicle id="leader" x="573.94" y="735.09" angle="74.99" type="DEFAULT_VEHTYPE@leader" speed="10.82" pos="15.78" lane="E2_0" slope="0.00" acceleration="0.00"/>
    </timestep>
    <timestep time="1.10">
        <vehicle id="leader" x="574.99" y="735.37" angle="74.99" type="DEFAULT_VEHTYPE@leader" speed="10.82" pos="16.87" lane="E2_0" slope="0.00" acceleration="0.00"/>
    </timestep>
    <timestep time="1.20">
        <vehicle id="leader" x="576.03" y="735.65" angle="74.99" type="DEFAULT_VEHTYPE@leader" speed="10.82" pos="17.95" lane="E2_0" slope="0.00" acceleration="0.00"/>
    </timestep>
    <timestep time="1.30">
        <vehicle id="leader" x="577.10" y="735.93" angle="74.99" type="DEFAULT_VEHTYPE@leader" speed="11.07" pos="19.05" lane="E2_0" slope="0.00" acceleration="2.50"/>
    </timestep>
    <timestep time="1.40">
        <vehicle id="leader" x="578.18" y="736.22" angle="74.99" type="DEFAULT_VEHTYPE@leader" speed="11.16" pos="20.17" lane="E2_0" slope="0.00" acceleration="0.90"/>
    </timestep>
    <timestep time="1.50">
        <vehicle id="leader" x="579.26" y="736.51" angle="74.99" type="DEFAULT_VEHTYPE@leader" speed="11.19" pos="21.29" lane="E2_0" slope="0.00" acceleration="0.30"/>
    </timestep>
    <timestep time="1.60">
        <vehicle id="leader" x="580.35" y="736.80" angle="74.99" type="DEFAULT_VEHTYPE@leader" speed="11.27" pos="22.42" lane="E2_0" slope="0.00" acceleration="0.80"/>
    </timestep>
    <timestep time="1.70">
        <vehicle id="leader" x="581.44" y="737.10" angle="74.99" type="DEFAULT_VEHTYPE@leader" speed="11.27" pos="23.54" lane="E2_0" slope="0.00" acceleration="0.00"/>
    </timestep>
    <timestep time="1.80">
        <vehicle id="leader" x="582.53" y="737.39" angle="74.99" type="DEFAULT_VEHTYPE@leader" speed="11.27" pos="24.67" lane="E2_0" slope="0.00" acceleration="0.00"/>
    </timestep>
    <timestep time="1.90">
        <vehicle id="leader" x="583.64" y="737.68" angle="74.99" type="DEFAULT_VEHTYPE@leader" speed="11.46" pos="25.82" lane="E2_0" slope="0.00" acceleration="1.90"/>
    </timestep>
    <timestep time="2.00">
        <vehicle id="leader" x="584.75" y="737.98" angle="74.99" type="DEFAULT_VEHTYPE@leader" speed="11.51" pos="26.97" lane="E2_0" slope="0.00" acceleration="0.50"/>
    </timestep>
    <timestep time="2.10">
        <vehicle id="leader" x="585.87" y="738.28" angle="74.99" type="DEFAULT_VEHTYPE@leader" speed="11.63" pos="28.13" lane="E2_0" slope="0.00" acceleration="1.20"/>
    </timestep>
    <timestep time="2.20">
        <vehicle id="leader" x="587.01" y="738.59" angle="74.99" type="DEFAULT_VEHTYPE@leader" speed="11.76" pos="29.31" lane="E2_0" slope="0.00" acceleration="1.30"/>
    </timestep>
    <timestep time="2.30">
        <vehicle id="leader" x="588.15" y="738.89" angle="74.99" type="DEFAULT_VEHTYPE@leader" speed="11.82" pos="30.49" lane="E2_0" slope="0.00" acceleration="0.60"/>
    </timestep>
    <timestep time="2.40">
        <vehicle id="leader" x="589.29" y="739.20" angle="74.99" type="DEFAULT_VEHTYPE@leader" speed="11.82" pos="31.67" lane="E2_0" slope="0.00" acceleration="0.00"/>
    </timestep>
    <timestep time="2.50">
        <vehicle id="leader" x="590.43" y="739.51" angle="74.99" type="DEFAULT_VEHTYPE@leader" speed="11.84" pos="32.85" lane="E2_0" slope="0.00" acceleration="0.20"/>
    </timestep>
    <timestep time="2.60">
        <vehicle id="leader" x="591.60" y="739.82" angle="74.99" type="DEFAULT_VEHTYPE@leader" speed="12.04" pos="34.06" lane="E2_0" slope="0.00" acceleration="2.00"/>
    </timestep>
    <timestep time="2.70">
        <vehicle id="leader" x="592.76" y="740.13" angle="74.99" type="DEFAULT_VEHTYPE@leader" speed="12.04" pos="35.26" lane="E2_0" slope="0.00" acceleration="0.00"/>
    </timestep>
    <timestep time="2.80">
        <vehicle id="leader" x="593.94" y="740.45" angle="74.99" type="DEFAULT_VEHTYPE@leader" speed="12.19" pos="36.48" lane="E2_0" slope="0.00" acceleration="1.50"/>
    </timestep>
    <timestep time="2.90">
        <vehicle id="leader" x="595.13" y="740.77" angle="74.99" type="DEFAULT_VEHTYPE@leader" speed="12.37" pos="37.72" lane="E2_0" slope="0.00" acceleration="1.80"/>
    </timestep>
    <timestep time="3.00">
        <vehicle id="follower" x="563.63" y="732.32" angle="74.99" type="DEFAULT_VEHTYPE@follower" speed="10.35" pos="5.10" lane="E2_0" slope="0.00" acceleration="0.00"/>
        <vehicle id="leader" x="596.33" y="741.09" angle="74.99" type="DEFAULT_VEHTYPE@leader" speed="12.37" pos="38.95" lane="E2_0" slope="0.00" acceleration="0.00"/>
    </timestep>
    <timestep time="3.10">
        <vehicle id="follower" x="564.65" y="732.59" angle="74.99" type="DEFAULT_VEHTYPE@follower" speed="10.59" pos="6.16" lane="E2_0" slope="0.00" acceleration="2.38"/>
        <vehicle id="leader" x="597.52" y="741.41" angle="74.99" type="DEFAULT_VEHTYPE@leader" speed="12.37" pos="40.19" lane="E2_0" slope="0.00" acceleration="0.00"/>
    </timestep>
    <timestep time="3.20">
        <vehicle id="follower" x="565.70" y="732.88" angle="74.99" type="DEFAULT_VEHTYPE@follower" speed="10.85" pos="7.24" lane="E2_0" slope="0.00" acceleration="2.58"/>
        <vehicle id="leader" x="598.72" y="741.73" angle="74.99" type="DEFAULT_VEHTYPE@leader" speed="12.37" pos="41.43" lane="E2_0" slope="0.00" acceleration="0.00"/>
    </timestep>
    <timestep time="3.30">
        <vehicle id="follower" x="566.77" y="733.16" angle="74.99" type="DEFAULT_VEHTYPE@follower" speed="11.12" pos="8.36" lane="E2_0" slope="0.00" acceleration="2.76"/>
        <vehicle id="leader" x="599.91" y="742.05" angle="74.99" type="DEFAULT_VEHTYPE@leader" speed="12.37" pos="42.67" lane="E2_0" slope="0.00" acceleration="0.00"/>
    </timestep>
    <timestep time="3.40">
        <vehicle id="follower" x="567.87" y="733.46" angle="74.99" type="DEFAULT_VEHTYPE@follower" speed="11.35" pos="9.49" lane="E2_0" slope="0.00" acceleration="2.34"/>
        <vehicle id="leader" x="601.11" y="742.37" angle="74.99" type="DEFAULT_VEHTYPE@leader" speed="12.37" pos="43.90" lane="E2_0" slope="0.00" acceleration="0.00"/>
    </timestep>
    <timestep time="3.50">
        <vehicle id="follower" x="568.98" y="733.76" angle="74.99" type="DEFAULT_VEHTYPE@follower" speed="11.51" pos="10.64" lane="E2_0" slope="0.00" acceleration="1.56"/>
        <vehicle id="leader" x="602.31" y="742.69" angle="74.99" type="DEFAULT_VEHTYPE@leader" speed="12.45" pos="45.15" lane="E2_0" slope="0.00" acceleration="0.80"/>
    </timestep>
    <timestep time="3.60">
        <vehicle id="follower" x="570.08" y="734.05" angle="74.99" type="DEFAULT_VEHTYPE@follower" speed="11.44" pos="11.79" lane="E2_0" slope="0.00" acceleration="-0.67"/>
        <vehicle id="leader" x="603.52" y="743.02" angle="74.99" type="DEFAULT_VEHTYPE@leader" speed="12.56" pos="46.40" lane="E2_0" slope="0.00" acceleration="1.10"/>
    </timestep>
    <timestep time="3.70">
        <vehicle id="follower" x="571.21" y="734.35" angle="74.99" type="DEFAULT_VEHTYPE@follower" speed="11.62" pos="12.95" lane="E2_0" slope="0.00" acceleration="1.71"/>
        <vehicle id="leader" x="604.75" y="743.34" angle="74.99" type="DEFAULT_VEHTYPE@leader" speed="12.68" pos="47.67" lane="E2_0" slope="0.00" acceleration="1.20"/>
    </timestep>
    <timestep time="3.80">
        <vehicle id="follower" x="572.33" y="734.65" angle="74.99" type="DEFAULT_VEHTYPE@follower" speed="11.64" pos="14.11" lane="E2_0" slope="0.00" acceleration="0.23"/>
        <vehicle id="leader" x="606.00" y="743.68" angle="74.99" type="DEFAULT_VEHTYPE@leader" speed="12.93" pos="48.97" lane="E2_0" slope="0.00" acceleration="2.50"/>
    </timestep>
    <timestep time="3.90">
        <vehicle id="follower" x="573.46" y="734.96" angle="74.99" type="DEFAULT_VEHTYPE@follower" speed="11.74" pos="15.29" lane="E2_0" slope="0.00" acceleration="1.01"/>
        <vehicle id="leader" x="607.24" y="744.01" angle="74.99" type="DEFAULT_VEHTYPE@leader" speed="12.93" pos="50.26" lane="E2_0" slope="0.00" acceleration="0.00"/>
    </timestep>
    <timestep time="4.00">
        <vehicle id="follower" x="574.60" y="735.26" angle="74.99" type="DEFAULT_VEHTYPE@follower" speed="11.78" pos="16.46" lane="E2_0" slope="0.00" acceleration="0.39"/>
        <vehicle id="leader" x="608.50" y="744.35" angle="74.99" type="DEFAULT_VEHTYPE@leader" speed="13.03" pos="51.56" lane="E2_0" slope="0.00" acceleration="1.00"/>
    </timestep>
    <timestep time="4.10">
        <vehicle id="follower" x="575.75" y="735.57" angle="74.99" type="DEFAULT_VEHTYPE@follower" speed="11.85" pos="17.65" lane="E2_0" slope="0.00" acceleration="0.75"/>
        <vehicle id="leader" x="609.77" y="744.69" angle="74.99" type="DEFAULT_VEHTYPE@leader" speed="13.11" pos="52.87" lane="E2_0" slope="0.00" acceleration="0.80"/>
    </timestep>
    <timestep time="4.20">
        <vehicle id="follower" x="576.89" y="735.88" angle="74.99" type="DEFAULT_VEHTYPE@follower" speed="11.86" pos="18.84" lane="E2_0" slope="0.00" acceleration="0.10"/>
        <vehicle id="leader" x="611.06" y="745.04" angle="74.99" type="DEFAULT_VEHTYPE@leader" speed="13.35" pos="54.21" lane="E2_0" slope="0.00" acceleration="2.40"/>
    </timestep>
    <timestep time="4.30">
        <vehicle id="follower" x="578.06" y="736.19" angle="74.99" type="DEFAULT_VEHTYPE@follower" speed="12.09" pos="20.04" lane="E2_0" slope="0.00" acceleration="2.22"/>
        <vehicle id="leader" x="612.37" y="745.39" angle="74.99" type="DEFAULT_VEHTYPE@leader" speed="13.53" pos="55.56" lane="E2_0" slope="0.00" acceleration="1.80"/>
    </timestep>
    <timestep time="4.40">
        <vehicle id="follower" x="579.23" y="736.50" angle="74.99" type="DEFAULT_VEHTYPE@follower" speed="12.15" pos="21.26" lane="E2_0" slope="0.00" acceleration="0.68"/>
        <vehicle id="leader" x="613.70" y="745.74" angle="74.99" type="DEFAULT_VEHTYPE@leader" speed="13.81" pos="56.94" lane="E2_0" slope="0.00" acceleration="2.80"/>
    </timestep>
    <timestep time="4.50">
        <vehicle id="follower" x="580.42" y="736.82" angle="74.99" type="DEFAULT_VEHTYPE@follower" speed="12.26" pos="22.49" lane="E2_0" slope="0.00" acceleration="1.05"/>
        <vehicle id="leader" x="615.06" y="746.11" angle="74.99" type="DEFAULT_VEHTYPE@leader" speed="14.09" pos="58.35" lane="E2_0" slope="0.00" acceleration="2.80"/>
    </timestep>
    <timestep time="4.60">
        <vehicle id="follower" x="581.62" y="737.14" angle="74.99" type="DEFAULT_VEHTYPE@follower" speed="12.45" pos="23.73" lane="E2_0" slope="0.00" acceleration="1.90"/>
        <vehicle id="leader" x="616.45" y="746.48" angle="74.99" type="DEFAULT_VEHTYPE@leader" speed="14.36" pos="59.79" lane="E2_0" slope="0.00" acceleration="2.70"/>
    </timestep>
    <timestep time="4.70">
        <vehicle id="follower" x="582.85" y="737.47" angle="74.99" type="DEFAULT_VEHTYPE@follower" speed="12.71" pos="25.00" lane="E2_0" slope="0.00" acceleration="2.59"/>
        <vehicle id="leader" x="617.84" y="746.85" angle="74.99" type="DEFAULT_VEHTYPE@leader" speed="14.42" pos="61.23" lane="E2_0" slope="0.00" acceleration="0.60"/>
    </timestep>
    <timestep time="4.80">
        <vehicle id="follower" x="584.07" y="737.80" angle="74.99" type="DEFAULT_VEHTYPE@follower" speed="12.69" pos="26.27" lane="E2_0" slope="0.00" acceleration="-0.18"/>
        <vehicle id="leader" x="619.25" y="747.23" angle="74.99" type="DEFAULT_VEHTYPE@leader" speed="14.58" pos="62.69" lane="E2_0" slope="0.00" acceleration="1.60"/>
    </timestep>
    <timestep time="4.90">
        <vehicle id="follower" x="585.32" y="738.14" angle="74.99" type="DEFAULT_VEHTYPE@follower" speed="12.86" pos="27.56" lane="E2_0" slope="0.00" acceleration="1.73"/>
        <vehicle id="leader" x="620.66" y="747.61" angle="74.99" type="DEFAULT_VEHTYPE@leader" speed="14.63" pos="64.15" lane="E2_0" slope="0.00" acceleration="0.50"/>
    </timestep>
    <timestep time="5.00">
        <vehicle id="follower" x="586.55" y="738.47" angle="74.99" type="DEFAULT_VEHTYPE@follower" speed="12.79" pos="28.83" lane="E2_0" slope="0.00" acceleration="-0.79"/>
        <vehicle id="leader" x="622.08" y="747.99" angle="74.99" type="DEFAULT_VEHTYPE@leader" speed="14.73" pos="65.62" lane="E2_0" slope="0.00" acceleration="1.00"/>
    </timestep>
    <timestep time="5.10">
        <vehicle id="follower" x="587.80" y="738.80" angle="74.99" type="DEFAULT_VEHTYPE@follower" speed="12.95" pos="30.13" lane="E2_0" slope="0.00" acceleration="1.69"/>
        <vehicle id="leader" x="623.51" y="748.37" angle="74.99" type="DEFAULT_VEHTYPE@leader" speed="14.73" pos="67.09" lane="E2_0" slope="0.00" acceleration="0.00"/>
    </timestep>
    <timestep time="5.20">
        <vehicle id="follower" x="589.05" y="739.14" angle="74.99" type="DEFAULT_VEHTYPE@follower" speed="12.95" pos="31.42" lane="E2_0" slope="0.00" acceleration="-0.05"/>
        <vehicle id="leader" x="624.94" y="748.76" angle="74.99" type="DEFAULT_VEHTYPE@leader" speed="14.81" pos="68.58" lane="E2_0" slope="0.00" acceleration="0.80"/>
    </timestep>
    <timestep time="5.30">
        <vehicle id="follower" x="590.32" y="739.48" angle="74.99" type="DEFAULT_VEHTYPE@follower" speed="13.07" pos="32.73" lane="E2_0" slope="0.00" acceleration="1.20"/>
        <vehicle id="leader" x="626.37" y="749.14" angle="74.99" type="DEFAULT_VEHTYPE@leader" speed="14.88" pos="70.06" lane="E2_0" slope="0.00" acceleration="0.70"/>
    </timestep>
    <timestep time="5.40">
        <vehicle id="follower" x="591.59" y="739.82" angle="74.99" type="DEFAULT_VEHTYPE@follower" speed="13.14" pos="34.05" lane="E2_0" slope="0.00" acceleration="0.75"/>
        <vehicle id="leader" x="627.83" y="749.53" angle="74.99" type="DEFAULT_VEHTYPE@leader" speed="15.02" pos="71.57" lane="E2_0" slope="0.00" acceleration="1.40"/>
    </timestep>
    <timestep time="5.50">
        <vehicle id="follower" x="592.86" y="740.16" angle="74.99" type="DEFAULT_VEHTYPE@follower" speed="13.20" pos="35.37" lane="E2_0" slope="0.00" acceleration="0.59"/>
        <vehicle id="leader" x="629.27" y="749.92" angle="74.99" type="DEFAULT_VEHTYPE@leader" speed="14.99" pos="73.06" lane="E2_0" slope="0.00" acceleration="-0.30"/>
    </timestep>
    <timestep time="5.60">
        <vehicle id="follower" x="594.14" y="740.50" angle="74.99" type="DEFAULT_VEHTYPE@follower" speed="13.23" pos="36.69" lane="E2_0" slope="0.00" acceleration="0.31"/>
        <vehicle id="leader" x="630.73" y="750.31" angle="74.99" type="DEFAULT_VEHTYPE@leader" speed="15.06" pos="74.57" lane="E2_0" slope="0.00" acceleration="0.70"/>
    </timestep>
    <timestep time="5.70">
        <vehicle id="follower" x="595.42" y="740.84" angle="74.99" type="DEFAULT_VEHTYPE@follower" speed="13.27" pos="38.02" lane="E2_0" slope="0.00" acceleration="0.31"/>
        <vehicle id="leader" x="632.20" y="750.70" angle="74.99" type="DEFAULT_VEHTYPE@leader" speed="15.22" pos="76.09" lane="E2_0" slope="0.00" acceleration="1.60"/>
    </timestep>
    <timestep time="5.80">
        <vehicle id="follower" x="596.71" y="741.19" angle="74.99" type="DEFAULT_VEHTYPE@follower" speed="13.38" pos="39.35" lane="E2_0" slope="0.00" acceleration="1.11"/>
        <vehicle id="leader" x="633.66" y="751.10" angle="74.99" type="DEFAULT_VEHTYPE@leader" speed="15.16" pos="77.61" lane="E2_0" slope="0.00" acceleration="-0.60"/>
    </timestep>
    <timestep time="5.90">
        <vehicle id="follower" x="598.00" y="741.53" angle="74.99" type="DEFAULT_VEHTYPE@follower" speed="13.31" pos="40.69" lane="E2_0" slope="0.00" acceleration="-0.64"/>
        <vehicle id="leader" x="635.13" y="751.49" angle="74.99" type="DEFAULT_VEHTYPE@leader" speed="15.16" pos="79.12" lane="E2_0" slope="0.00" acceleration="0.00"/>
    </timestep>
    <timestep time="6.00">
        <vehicle id="follower" x="599.29" y="741.88" angle="74.99" type="DEFAULT_VEHTYPE@follower" speed="13.40" pos="42.03" lane="E2_0" slope="0.00" acceleration="0.84"/>
        <vehicle id="leader" x="636.58" y="751.88" angle="74.99" type="DEFAULT_VEHTYPE@leader" speed="15.06" pos="80.63" lane="E2_0" slope="0.00" acceleration="-1.00"/>
    </timestep>
    <timestep time="6.10">
        <vehicle id="follower" x="600.58" y="742.23" angle="74.99" type="DEFAULT_VEHTYPE@follower" speed="13.29" pos="43.35" lane="E2_0" slope="0.00" acceleration="-1.02"/>
        <vehicle id="leader" x="638.04" y="752.27" angle="74.99" type="DEFAULT_VEHTYPE@leader" speed="15.12" pos="82.14" lane="E2_0" slope="0.00" acceleration="0.60"/>
    </timestep>
    <timestep time="6.20">
        <vehicle id="follower" x="601.87" y="742.57" angle="74.99" type="DEFAULT_VEHTYPE@follower" speed="13.44" pos="44.70" lane="E2_0" slope="0.00" acceleration="1.50"/>
        <vehicle id="leader" x="639.51" y="752.66" angle="74.99" type="DEFAULT_VEHTYPE@leader" speed="15.16" pos="83.66" lane="E2_0" slope="0.00" acceleration="0.40"/>
    </timestep>
    <timestep time="6.30">
        <vehicle id="follower" x="603.17" y="742.92" angle="74.99" type="DEFAULT_VEHTYPE@follower" speed="13.41" pos="46.04" lane="E2_0" slope="0.00" acceleration="-0.36"/>
        <vehicle id="leader" x="640.99" y="753.06" angle="74.99" type="DEFAULT_VEHTYPE@leader" speed="15.40" pos="85.20" lane="E2_0" slope="0.00" acceleration="2.40"/>
    </timestep>
    <timestep time="6.40">
        <vehicle id="follower" x="604.48" y="743.27" angle="74.99" type="DEFAULT_VEHTYPE@follower" speed="13.55" pos="47.39" lane="E2_0" slope="0.00" acceleration="1.38"/>
        <vehicle id="leader" x="642.50" y="753.47" angle="74.99" type="DEFAULT_VEHTYPE@leader" speed="15.63" pos="86.76" lane="E2_0" slope="0.00" acceleration="2.30"/>
    </timestep>
    <timestep time="6.50">
        <vehicle id="follower" x="605.81" y="743.63" angle="74.99" type="DEFAULT_VEHTYPE@follower" speed="13.76" pos="48.77" lane="E2_0" slope="0.00" acceleration="2.12"/>
        <vehicle id="leader" x="644.02" y="753.87" angle="74.99" type="DEFAULT_VEHTYPE@leader" speed="15.74" pos="88.34" lane="E2_0" slope="0.00" acceleration="1.10"/>
    </timestep>
    <timestep time="6.60">
        <vehicle id="follower" x="607.14" y="743.99" angle="74.99" type="DEFAULT_VEHTYPE@follower" speed="13.84" pos="50.15" lane="E2_0" slope="0.00" acceleration="0.77"/>
        <vehicle id="leader" x="645.55" y="754.28" angle="74.99" type="DEFAULT_VEHTYPE@leader" speed="15.76" pos="89.91" lane="E2_0" slope="0.00" acceleration="0.20"/>
    </timestep>
    <timestep time="6.70">
        <vehicle id="follower" x="608.48" y="744.35" angle="74.99" type="DEFAULT_VEHTYPE@follower" speed="13.86" pos="51.54" lane="E2_0" slope="0.00" acceleration="0.21"/>
        <vehicle id="leader" x="647.08" y="754.69" angle="74.99" type="DEFAULT_VEHTYPE@leader" speed="15.87" pos="91.50" lane="E2_0" slope="0.00" acceleration="1.10"/>
    </timestep>
    <timestep time="6.80">
        <vehicle id="follower" x="609.83" y="744.71" angle="74.99" type="DEFAULT_VEHTYPE@follower" speed="13.98" pos="52.94" lane="E2_0" slope="0.00" acceleration="1.22"/>
        <vehicle id="leader" x="648.61" y="755.10" angle="74.99" type="DEFAULT_VEHTYPE@leader" speed="15.90" pos="93.09" lane="E2_0" slope="0.00" acceleration="0.30"/>
    </timestep>
    <timestep time="6.90">
        <vehicle id="follower" x="611.19" y="745.07" angle="74.99" type="DEFAULT_VEHTYPE@follower" speed="14.02" pos="54.34" lane="E2_0" slope="0.00" acceleration="0.35"/>
        <vehicle id="leader" x="650.17" y="755.52" angle="74.99" type="DEFAULT_VEHTYPE@leader" speed="16.11" pos="94.70" lane="E2_0" slope="0.00" acceleration="2.10"/>
    </timestep>
    <timestep time="7.00">
        <vehicle id="follower" x="612.56" y="745.44" angle="74.99" type="DEFAULT_VEHTYPE@follower" speed="14.18" pos="55.76" lane="E2_0" slope="0.00" acceleration="1.67"/>
        <vehicle id="leader" x="651.72" y="755.94" angle="74.99" type="DEFAULT_VEHTYPE@leader" speed="16.07" pos="96.31" lane="E2_0" slope="0.00" acceleration="-0.40"/>
    </timestep>
    <timestep time="7.10">
        <vehicle id="follower" x="613.92" y="745.80" angle="74.99" type="DEFAULT_VEHTYPE@follower" speed="14.11" pos="57.17" lane="E2_0" slope="0.00" acceleration="-0.72"/>
        <vehicle id="leader" x="653.27" y="756.35" angle="74.99" type="DEFAULT_VEHTYPE@leader" speed="16.07" pos="97.91" lane="E2_0" slope="0.00" acceleration="0.00"/>
    </timestep>
    <timestep time="7.20">
        <vehicle id="follower" x="615.29" y="746.17" angle="74.99" type="DEFAULT_VEHTYPE@follower" speed="14.19" pos="58.59" lane="E2_0" slope="0.00" acceleration="0.81"/>
        <vehicle id="leader" x="654.83" y="756.77" angle="74.99" type="DEFAULT_VEHTYPE@leader" speed="16.07" pos="99.52" lane="E2_0" slope="0.00" acceleration="0.00"/>
    </timestep>
    <timestep time="7.30">
        <vehicle id="follower" x="616.67" y="746.54" angle="74.99" type="DEFAULT_VEHTYPE@follower" speed="14.24" pos="60.01" lane="E2_0" slope="0.00" acceleration="0.48"/>
        <vehicle id="leader" x="656.38" y="757.19" angle="74.99" type="DEFAULT_VEHTYPE@leader" speed="16.07" pos="101.13" lane="E2_0" slope="0.00" acceleration="0.00"/>
    </timestep>
    <timestep time="7.40">
        <vehicle id="follower" x="618.04" y="746.91" angle="74.99" type="DEFAULT_VEHTYPE@follower" speed="14.26" pos="61.44" lane="E2_0" slope="0.00" acceleration="0.23"/>
        <vehicle id="leader" x="657.93" y="757.60" angle="74.99" type="DEFAULT_VEHTYPE@leader" speed="16.07" pos="102.74" lane="E2_0" slope="0.00" acceleration="0.00"/>
    </timestep>
    <timestep time="7.50">
        <vehicle id="follower" x="619.42" y="747.28" angle="74.99" type="DEFAULT_VEHTYPE@follower" speed="14.26" pos="62.86" lane="E2_0" slope="0.00" acceleration="-0.07"/>
        <vehicle id="leader" x="659.48" y="758.02" angle="74.99" type="DEFAULT_VEHTYPE@leader" speed="16.07" pos="104.34" lane="E2_0" slope="0.00" acceleration="0.00"/>
    </timestep>
    <timestep time="7.60">
        <vehicle id="follower" x="620.80" y="747.65" angle="74.99" type="DEFAULT_VEHTYPE@follower" speed="14.33" pos="64.30" lane="E2_0" slope="0.00" acceleration="0.71"/>
        <vehicle id="leader" x="661.03" y="758.43" angle="74.99" type="DEFAULT_VEHTYPE@leader" speed="16.01" pos="105.94" lane="E2_0" slope="0.00" acceleration="-0.60"/>
    </timestep>
    <timestep time="7.70">
        <vehicle id="follower" x="622.18" y="748.02" angle="74.99" type="DEFAULT_VEHTYPE@follower" speed="14.23" pos="65.72" lane="E2_0" slope="0.00" acceleration="-0.94"/>
        <vehicle id="leader" x="662.58" y="758.85" angle="74.99" type="DEFAULT_VEHTYPE@leader" speed="16.04" pos="107.55" lane="E2_0" slope="0.00" acceleration="0.30"/>
    </timestep>
    <timestep time="7.80">
        <vehicle id="follower" x="623.55" y="748.39" angle="74.99" type="DEFAULT_VEHTYPE@follower" speed="14.25" pos="67.14" lane="E2_0" slope="0.00" acceleration="0.16"/>
        <vehicle id="leader" x="664.14" y="759.27" angle="74.99" type="DEFAULT_VEHTYPE@leader" speed="16.16" pos="109.16" lane="E2_0" slope="0.00" acceleration="1.20"/>
    </timestep>
    <timestep time="7.90">
        <vehicle id="follower" x="624.94" y="748.76" angle="74.99" type="DEFAULT_VEHTYPE@follower" speed="14.33" pos="68.58" lane="E2_0" slope="0.00" acceleration="0.77"/>
        <vehicle id="leader" x="665.70" y="759.69" angle="74.99" type="DEFAULT_VEHTYPE@leader" speed="16.18" pos="110.78" lane="E2_0" slope="0.00" acceleration="0.20"/>
    </timestep>
    <timestep time="8.00">
        <vehicle id="follower" x="626.33" y="749.13" angle="74.99" type="DEFAULT_VEHTYPE@follower" speed="14.39" pos="70.02" lane="E2_0" slope="0.00" acceleration="0.69"/>
        <vehicle id="leader" x="667.26" y="760.10" angle="74.99" type="DEFAULT_VEHTYPE@leader" speed="16.15" pos="112.40" lane="E2_0" slope="0.00" acceleration="-0.30"/>
    </timestep>
    <timestep time="8.10">
        <vehicle id="follower" x="627.72" y="749.50" angle="74.99" type="DEFAULT_VEHTYPE@follower" speed="14.41" pos="71.46" lane="E2_0" slope="0.00" acceleration="0.20"/>
        <vehicle id="leader" x="668.83" y="760.52" angle="74.99" type="DEFAULT_VEHTYPE@leader" speed="16.22" pos="114.02" lane="E2_0" slope="0.00" acceleration="0.70"/>
    </timestep>
    <timestep time="8.20">
        <vehicle id="follower" x="629.12" y="749.88" angle="74.99" type="DEFAULT_VEHTYPE@follower" speed="14.50" pos="72.91" lane="E2_0" slope="0.00" acceleration="0.88"/>
        <vehicle id="leader" x="670.41" y="760.95" angle="74.99" type="DEFAULT_VEHTYPE@leader" speed="16.32" pos="115.65" lane="E2_0" slope="0.00" acceleration="1.00"/>
    </timestep>
    <timestep time="8.30">
        <vehicle id="follower" x="630.53" y="750.26" angle="74.99" type="DEFAULT_VEHTYPE@follower" speed="14.55" pos="74.36" lane="E2_0" slope="0.00" acceleration="0.44"/>
        <vehicle id="leader" x="671.98" y="761.37" angle="74.99" type="DEFAULT_VEHTYPE@leader" speed="16.31" pos="117.28" lane="E2_0" slope="0.00" acceleration="-0.10"/>
    </timestep>
    <timestep time="8.40">
        <vehicle id="follower" x="631.94" y="750.63" angle="74.99" type="DEFAULT_VEHTYPE@follower" speed="14.63" pos="75.83" lane="E2_0" slope="0.00" acceleration="0.88"/>
        <vehicle id="leader" x="673.55" y="761.79" angle="74.99" type="DEFAULT_VEHTYPE@leader" speed="16.27" pos="118.91" lane="E2_0" slope="0.00" acceleration="-0.40"/>
    </timestep>
    <timestep time="8.50">
        <vehicle id="follower" x="633.35" y="751.01" angle="74.99" type="DEFAULT_VEHTYPE@follower" speed="14.56" pos="77.28" lane="E2_0" slope="0.00" acceleration="-0.73"/>
        <vehicle id="leader" x="675.13" y="762.21" angle="74.99" type="DEFAULT_VEHTYPE@leader" speed="16.30" pos="120.54" lane="E2_0" slope="0.00" acceleration="0.30"/>
    </timestep>
    <timestep time="8.60">
        <vehicle id="follower" x="634.75" y="751.39" angle="74.99" type="DEFAULT_VEHTYPE@follower" speed="14.56" pos="78.74" lane="E2_0" slope="0.00" acceleration="-0.04"/>
        <vehicle id="leader" x="676.71" y="762.64" angle="74.99" type="DEFAULT_VEHTYPE@leader" speed="16.40" pos="122.18" lane="E2_0" slope="0.00" acceleration="1.00"/>
    </timestep>
    <timestep time="8.70">
        <vehicle id="follower" x="636.18" y="751.77" angle="74.99" type="DEFAULT_VEHTYPE@follower" speed="14.76" pos="80.21" lane="E2_0" slope="0.00" acceleration="2.05"/>
        <vehicle id="leader" x="678.31" y="763.06" angle="74.99" type="DEFAULT_VEHTYPE@leader" speed="16.54" pos="123.83" lane="E2_0" slope="0.00" acceleration="1.40"/>
    </timestep>
    <timestep time="8.80">
        <vehicle id="follower" x="637.60" y="752.15" angle="74.99" type="DEFAULT_VEHTYPE@follower" speed="14.73" pos="81.69" lane="E2_0" slope="0.00" acceleration="-0.30"/>
        <vehicle id="leader" x="679.91" y="763.49" angle="74.99" type="DEFAULT_VEHTYPE@leader" speed="16.60" pos="125.49" lane="E2_0" slope="0.00" acceleration="0.60"/>
    </timestep>
    <timestep time="8.90">