<?xml version="1.0" encoding="UTF-8"?>

<!-- generated on 2023-04-04 14:21:55 by Eclipse SUMO sumo Version 1.16.0
<configuration xmlns:xsi="http://www.w3.org/2001/XMLSchema-instance" xsi:noNamespaceSchemaLocation="http://sumo.dlr.de/xsd/sumoConfiguration.xsd">

    <input>
        <net-file value="c:\Users\aryak\Projects\cf-sumo\sumo-xml\net.net.xml"/>
    </input>

    <output>
        <fcd-output value="c:\Users\aryak\Projects\cf-sumo\sumo-xml\output\756_fcd.xml"/>
        <fcd-output.acceleration value="true"/>
    </output>

    <time>
        <step-length value="0.1"/>
    </time>

    <report>
        <no-step-log value="true"/>
    </report>

    <traci_server>
        <remote-port value="50109"/>
    </traci_server>

</configuration>
-->

<fcd-export xmlns:xsi="http://www.w3.org/2001/XMLSchema-instance" xsi:noNamespaceSchemaLocation="http://sumo.dlr.de/xsd/fcd_file.xsd">
    <timestep time="0.00">
        <vehicle id="leader" x="563.63" y="732.32" angle="74.99" type="DEFAULT_VEHTYPE@leader" speed="10.35" pos="5.10" lane="E2_0" slope="0.00" acceleration="0.00"/>
    </timestep>
    <timestep time="0.10">
        <vehicle id="leader" x="564.65" y="732.59" angle="74.99" type="DEFAULT_VEHTYPE@leader" speed="10.55" pos="6.15" lane="E2_0" slope="0.00" acceleration="2.00"/>
    </timestep>
    <timestep time="0.20">
        <vehicle id="leader" x="565.67" y="732.87" angle="74.99" type="DEFAULT_VEHTYPE@leader" speed="10.63" pos="7.22" lane="E2_0" slope="0.00" acceleration="0.80"/>
    </timestep>
    <timestep time="0.30">
        <vehicle id="leader" x="566.69" y="733.14" angle="74.99" type="DEFAULT_VEHTYPE@leader" speed="10.53" pos="8.27" lane="E2_0" slope="0.00" acceleration="-1.00"/>
    </timestep>
    <timestep time="0.40">
        <vehicle id="leader" x="567.70" y="733.41" angle="74.99" type="DEFAULT_VEHTYPE@leader" speed="10.48" pos="9.32" lane="E2_0" slope="0.00" acceleration="-0.50"/>
    </timestep>
    <timestep time="0.50">
        <vehicle id="leader" x="568.73" y="733.69" angle="74.99" type="DEFAULT_VEHTYPE@leader" speed="10.66" pos="10.39" lane="E2_0" slope="0.00" acceleration="1.80"/>
    </timestep>
    <timestep time="0.60">
        <vehicle id="leader" x="569.77" y="733.97" angle="74.99" type="DEFAULT_VEHTYPE@leader" speed="10.78" pos="11.46" lane="E2_0" slope="0.00" acceleration="1.20"/>
    </timestep>
    <timestep time="0.70">
        <vehicle id="leader" x="570.81" y="734.25" angle="74.99" type="DEFAULT_VEHTYPE@leader" speed="10.78" pos="12.54" lane="E2_0" slope="0.00" acceleration="0.00"/>
    </timestep>
    <timestep time="0.80">
        <vehicle id="leader" x="571.85" y="734.53" angle="74.99" type="DEFAULT_VEHTYPE@leader" speed="10.78" pos="13.62" lane="E2_0" slope="0.00" acceleration="0.00"/>
    </timestep>
    <timestep time="0.90">
        <vehicle id="leader" x="572.90" y="734.81" angle="74.99" type="DEFAULT_VEHTYPE@leader" speed="10.82" pos="14.70" lane="E2_0" slope="0.00" acceleration="0.40"/>
    </timestep>
    <timestep time="1.00">
        <vehicle id="leader" x="573.94" y="735.09" angle="74.99" type="DEFAULT_VEHTYPE@leader" speed="10.82" pos="15.78" lane="E2_0" slope="0.00" acceleration="0.00"/>
    </timestep>
    <timestep time="1.10">
        <vehicle id="leader" x="574.99" y="735.37" angle="74.99" type="DEFAULT_VEHTYPE@leader" speed="10.82" pos="16.87" lane="E2_0" slope="0.00" acceleration="0.00"/>
    </timestep>
    <timestep time="1.20">
        <vehicle id="leader" x="576.03" y="735.65" angle="74.99" type="DEFAULT_VEHTYPE@leader" speed="10.82" pos="17.95" lane="E2_0" slope="0.00" acceleration="0.00"/>
    </timestep>
    <timestep time="1.30">
        <vehicle id="leader" x="577.10" y="735.93" angle="74.99" type="DEFAULT_VEHTYPE@leader" speed="11.07" pos="19.05" lane="E2_0" slope="0.00" acceleration="2.50"/>
    </timestep>
    <timestep time="1.40">
        <vehicle id="leader" x="578.18" y="736.22" angle="74.99" type="DEFAULT_VEHTYPE@leader" speed="11.16" pos="20.17" lane="E2_0" slope="0.00" acceleration="0.90"/>
    </timestep>
    <timestep time="1.50">
        <vehicle id="leader" x="579.26" y="736.51" angle="74.99" type="DEFAULT_VEHTYPE@leader" speed="11.19" pos="21.29" lane="E2_0" slope="0.00" acceleration="0.30"/>
    </timestep>
    <timestep time="1.60">
        <vehicle id="leader" x="580.35" y="736.80" angle="74.99" type="DEFAULT_VEHTYPE@leader" speed="11.27" pos="22.42" lane="E2_0" slope="0.00" acceleration="0.80"/>
    </timestep>
    <timestep time="1.70">
        <vehicle id="leader" x="581.44" y="737.10" angle="74.99" type="DEFAULT_VEHTYPE@leader" speed="11.27" pos="23.54" lane="E2_0" slope="0.00" acceleration="0.00"/>
    </timestep>
    <timestep time="1.80">
        <vehicle id="leader" x="582.53" y="737.39" angle="74.99" type="DEFAULT_VEHTYPE@leader" speed="11.27" pos="24.67" lane="E2_0" slope="0.00" acceleration="0.00"/>
    </timestep>
    <timestep time="1.90">
        <vehicle id="leader" x="583.64" y="737.68" angle="74.99" type="DEFAULT_VEHTYPE@leader" speed="11.46" pos="25.82" lane="E2_0" slope="0.00" acceleration="1.90"/>
    </timestep>
    <timestep time="2.00">
        <vehicle id="leader" x="584.75" y="737.98" angle="74.99" type="DEFAULT_VEHTYPE@leader" speed="11.51" pos="26.97" lane="E2_0" slope="0.00" acceleration="0.50"/>
    </timestep>
    <timestep time="2.10">
        <vehicle id="leader" x="585.87" y="738.28" angle="74.99" type="DEFAULT_VEHTYPE@leader" speed="11.63" pos="28.13" lane="E2_0" slope="0.00" acceleration="1.20"/>
    </timestep>
    <timestep time="2.20">
        <vehicle id="leader" x="587.01" y="738.59" angle="74.99" type="DEFAULT_VEHTYPE@leader" speed="11.76" pos="29.31" lane="E2_0" slope="0.00" acceleration="1.30"/>
    </timestep>
    <timestep time="2.30">
        <vehicle id="leader" x="588.15" y="738.89" angle="74.99" type="DEFAULT_VEHTYPE@leader" speed="11.82" pos="30.49" lane="E2_0" slope="0.00" acceleration="0.60"/>
    </timestep>
    <timestep time="2.40">
        <vehicle id="leader" x="589.29" y="739.20" angle="74.99" type="DEFAULT_VEHTYPE@leader" speed="11.82" pos="31.67" lane="E2_0" slope="0.00" acceleration="0.00"/>
    </timestep>
    <timestep time="2.50">
        <vehicle id="leader" x="590.43" y="739.51" angle="74.99" type="DEFAULT_VEHTYPE@leader" speed="11.84" pos="32.85" lane="E2_0" slope="0.00" acceleration="0.20"/>
    </timestep>
    <timestep time="2.60">
        <vehicle id="leader" x="591.60" y="739.82" angle="74.99" type="DEFAULT_VEHTYPE@leader" speed="12.04" pos="34.06" lane="E2_0" slope="0.00" acceleration="2.00"/>
    </timestep>
    <timestep time="2.70">
        <vehicle id="leader" x="592.76" y="740.13" angle="74.99" type="DEFAULT_VEHTYPE@leader" speed="12.04" pos="35.26" lane="E2_0" slope="0.00" acceleration="0.00"/>
    </timestep>
    <timestep time="2.80">
        <vehicle id="leader" x="593.94" y="740.45" angle="74.99" type="DEFAULT_VEHTYPE@leader" speed="12.19" pos="36.48" lane="E2_0" slope="0.00" acceleration="1.50"/>
    </timestep>
    <timestep time="2.90">
        <vehicle id="leader" x="595.13" y="740.77" angle="74.99" type="DEFAULT_VEHTYPE@leader" speed="12.37" pos="37.72" lane="E2_0" slope="0.00" acceleration="1.80"/>
    </timestep>
    <timestep time="3.00">
        <vehicle id="follower" x="563.63" y="732.32" angle="74.99" type="DEFAULT_VEHTYPE@follower" speed="10.35" pos="5.10" lane="E2_0" slope="0.00" acceleration="0.00"/>
        <vehicle id="leader" x="596.33" y="741.09" angle="74.99" type="DEFAULT_VEHTYPE@leader" speed="12.37" pos="38.95" lane="E2_0" slope="0.00" acceleration="0.00"/>
    </timestep>
    <timestep time="3.10">
        <vehicle id="follower" x="564.65" y="732.59" angle="74.99" type="DEFAULT_VEHTYPE@follower" speed="10.57" pos="6.16" lane="E2_0" slope="0.00" acceleration="2.21"/>
        <vehicle id="leader" x="597.52" y="741.41" angle="74.99" type="DEFAULT_VEHTYPE@leader" speed="12.37" pos="40.19" lane="E2_0" slope="0.00" acceleration="0.00"/>
    </timestep>
    <timestep time="3.20">
        <vehicle id="follower" x="565.69" y="732.87" angle="74.99" type="DEFAULT_VEHTYPE@follower" speed="10.81" pos="7.24" lane="E2_0" slope="0.00" acceleration="2.39"/>
        <vehicle id="leader" x="598.72" y="741.73" angle="74.99" type="DEFAULT_VEHTYPE@leader" speed="12.37" pos="41.43" lane="E2_0" slope="0.00" acceleration="0.00"/>
    </timestep>
    <timestep time="3.30">
        <vehicle id="follower" x="566.76" y="733.16" angle="74.99" type="DEFAULT_VEHTYPE@follower" speed="11.07" pos="8.34" lane="E2_0" slope="0.00" acceleration="2.56"/>
        <vehicle id="leader" x="599.91" y="742.05" angle="74.99" type="DEFAULT_VEHTYPE@leader" speed="12.37" pos="42.67" lane="E2_0" slope="0.00" acceleration="0.00"/>
    </timestep>
    <timestep time="3.40">
        <vehicle id="follower" x="567.85" y="733.45" angle="74.99" type="DEFAULT_VEHTYPE@follower" speed="11.28" pos="9.47" lane="E2_0" slope="0.00" acceleration="2.17"/>
        <vehicle id="leader" x="601.11" y="742.37" angle="74.99" type="DEFAULT_VEHTYPE@leader" speed="12.37" pos="43.90" lane="E2_0" slope="0.00" acceleration="0.00"/>
    </timestep>
    <timestep time="3.50">
        <vehicle id="follower" x="568.96" y="733.75" angle="74.99" type="DEFAULT_VEHTYPE@follower" speed="11.53" pos="10.63" lane="E2_0" slope="0.00" acceleration="2.44"/>
        <vehicle id="leader" x="602.31" y="742.69" angle="74.99" type="DEFAULT_VEHTYPE@leader" speed="12.45" pos="45.15" lane="E2_0" slope="0.00" acceleration="0.80"/>
    </timestep>
    <timestep time="3.60">
        <vehicle id="follower" x="570.09" y="734.05" angle="74.99" type="DEFAULT_VEHTYPE@follower" speed="11.66" pos="11.79" lane="E2_0" slope="0.00" acceleration="1.35"/>
        <vehicle id="leader" x="603.52" y="743.02" angle="74.99" type="DEFAULT_VEHTYPE@leader" speed="12.56" pos="46.40" lane="E2_0" slope="0.00" acceleration="1.10"/>
    </timestep>
    <timestep time="3.70">
        <vehicle id="follower" x="571.24" y="734.36" angle="74.99" type="DEFAULT_VEHTYPE@follower" speed="11.89" pos="12.98" lane="E2_0" slope="0.00" acceleration="2.31"/>
        <vehicle id="leader" x="604.75" y="743.34" angle="74.99" type="DEFAULT_VEHTYPE@leader" speed="12.68" pos="47.67" lane="E2_0" slope="0.00" acceleration="1.20"/>
    </timestep>
    <timestep time="3.80">
        <vehicle id="follower" x="572.39" y="734.67" angle="74.99" type="DEFAULT_VEHTYPE@follower" speed="11.93" pos="14.17" lane="E2_0" slope="0.00" acceleration="0.37"/>
        <vehicle id="leader" x="606.00" y="743.68" angle="74.99" type="DEFAULT_VEHTYPE@leader" speed="12.93" pos="48.97" lane="E2_0" slope="0.00" acceleration="2.50"/>
    </timestep>
    <timestep time="3.90">
        <vehicle id="follower" x="573.55" y="734.98" angle="74.99" type="DEFAULT_VEHTYPE@follower" speed="12.04" pos="15.38" lane="E2_0" slope="0.00" acceleration="1.08"/>
        <vehicle id="leader" x="607.24" y="744.01" angle="74.99" type="DEFAULT_VEHTYPE@leader" speed="12.93" pos="50.26" lane="E2_0" slope="0.00" acceleration="0.00"/>
    </timestep>
    <timestep time="4.00">
        <vehicle id="follower" x="574.72" y="735.29" angle="74.99" type="DEFAULT_VEHTYPE@follower" speed="12.07" pos="16.59" lane="E2_0" slope="0.00" acceleration="0.34"/>
        <vehicle id="leader" x="608.50" y="744.35" angle="74.99" type="DEFAULT_VEHTYPE@leader" speed="13.03" pos="51.56" lane="E2_0" slope="0.00" acceleration="1.00"/>
    </timestep>
    <timestep time="4.10">
        <vehicle id="follower" x="575.89" y="735.61" angle="74.99" type="DEFAULT_VEHTYPE@follower" speed="12.15" pos="17.80" lane="E2_0" slope="0.00" acceleration="0.75"/>
        <vehicle id="leader" x="609.77" y="744.69" angle="74.99" type="DEFAULT_VEHTYPE@leader" speed="13.11" pos="52.87" lane="E2_0" slope="0.00" acceleration="0.80"/>
    </timestep>
    <timestep time="4.20">
        <vehicle id="follower" x="577.07" y="735.92" angle="74.99" type="DEFAULT_VEHTYPE@follower" speed="12.16" pos="19.02" lane="E2_0" slope="0.00" acceleration="0.13"/>
        <vehicle id="leader" x="611.06" y="745.04" angle="74.99" type="DEFAULT_VEHTYPE@leader" speed="13.35" pos="54.21" lane="E2_0" slope="0.00" acceleration="2.40"/>
    </timestep>
    <timestep time="4.30">
        <vehicle id="follower" x="578.26" y="736.24" angle="74.99" type="DEFAULT_VEHTYPE@follower" speed="12.38" pos="20.25" lane="E2_0" slope="0.00" acceleration="2.20"/>
        <vehicle id="leader" x="612.37" y="745.39" angle="74.99" type="DEFAULT_VEHTYPE@leader" speed="13.53" pos="55.56" lane="E2_0" slope="0.00" acceleration="1.80"/>
    </timestep>
    <timestep time="4.40">
        <vehicle id="follower" x="579.47" y="736.57" angle="74.99" type="DEFAULT_VEHTYPE@follower" speed="12.45" pos="21.50" lane="E2_0" slope="0.00" acceleration="0.75"/>
        <vehicle id="leader" x="613.70" y="745.74" angle="74.99" type="DEFAULT_VEHTYPE@leader" speed="13.79" pos="56.94" lane="E2_0" slope="0.00" acceleration="2.60"/>
    </timestep>
    <timestep time="4.50">
        <vehicle id="follower" x="580.68" y="736.89" angle="74.99" type="DEFAULT_VEHTYPE@follower" speed="12.56" pos="22.76" lane="E2_0" slope="0.00" acceleration="1.06"/>
        <vehicle id="leader" x="615.05" y="746.11" angle="74.99" type="DEFAULT_VEHTYPE@leader" speed="14.05" pos="58.34" lane="E2_0" slope="0.00" acceleration="2.60"/>
    </timestep>
    <timestep time="4.60">
        <vehicle id="follower" x="581.91" y="737.22" angle="74.99" type="DEFAULT_VEHTYPE@follower" speed="12.74" pos="24.03" lane="E2_0" slope="0.00" acceleration="1.77"/>
        <vehicle id="leader" x="616.44" y="746.48" angle="74.99" type="DEFAULT_VEHTYPE@leader" speed="14.31" pos="59.77" lane="E2_0" slope="0.00" acceleration="2.60"/>
    </timestep>
    <timestep time="4.70">
        <vehicle id="follower" x="583.16" y="737.56" angle="74.99" type="DEFAULT_VEHTYPE@follower" speed="12.99" pos="25.33" lane="E2_0" slope="0.00" acceleration="2.56"/>
        <vehicle id="leader" x="617.83" y="746.85" angle="74.99" type="DEFAULT_VEHTYPE@leader" speed="14.42" pos="61.22" lane="E2_0" slope="0.00" acceleration="1.10"/>
    </timestep>
    <timestep time="4.80">
        <vehicle id="follower" x="584.42" y="737.90" angle="74.99" type="DEFAULT_VEHTYPE@follower" speed="13.01" pos="26.63" lane="E2_0" slope="0.00" acceleration="0.18"/>
        <vehicle id="leader" x="619.24" y="747.23" angle="74.99" type="DEFAULT_VEHTYPE@leader" speed="14.58" pos="62.67" lane="E2_0" slope="0.00" acceleration="1.60"/>
    </timestep>
    <timestep time="4.90">
        <vehicle id="follower" x="585.69" y="738.24" angle="74.99" type="DEFAULT_VEHTYPE@follower" speed="13.18" pos="27.95" lane="E2_0" slope="0.00" acceleration="1.73"/>
        <vehicle id="leader" x="620.65" y="747.61" angle="74.99" type="DEFAULT_VEHTYPE@leader" speed="14.63" pos="64.14" lane="E2_0" slope="0.00" acceleration="0.50"/>
    </timestep>
    <timestep time="5.00">
        <vehicle id="follower" x="586.96" y="738.58" angle="74.99" type="DEFAULT_VEHTYPE@follower" speed="13.11" pos="29.26" lane="E2_0" slope="0.00" acceleration="-0.71"/>
        <vehicle id="leader" x="622.07" y="747.99" angle="74.99" type="DEFAULT_VEHTYPE@leader" speed="14.73" pos="65.61" lane="E2_0" slope="0.00" acceleration="1.00"/>
    </timestep>
    <timestep time="5.10">
        <vehicle id="follower" x="588.24" y="738.92" angle="74.99" type="DEFAULT_VEHTYPE@follower" speed="13.28" pos="30.59" lane="E2_0" slope="0.00" acceleration="1.63"/>
        <vehicle id="leader" x="623.50" y="748.37" angle="74.99" type="DEFAULT_VEHTYPE@leader" speed="14.73" pos="67.08" lane="E2_0" slope="0.00" acceleration="0.00"/>
    </timestep>
    <timestep time="5.20">
        <vehicle id="follower" x="589.53" y="739.26" angle="74.99" type="DEFAULT_VEHTYPE@follower" speed="13.27" pos="31.91" lane="E2_0" slope="0.00" acceleration="-0.06"/>
        <vehicle id="leader" x="624.93" y="748.75" angle="74.99" type="DEFAULT_VEHTYPE@leader" speed="14.81" pos="68.56" lane="E2_0" slope="0.00" acceleration="0.80"/>
    </timestep>
    <timestep time="5.30">
        <vehicle id="follower" x="590.82" y="739.61" angle="74.99" type="DEFAULT_VEHTYPE@follower" speed="13.39" pos="33.25" lane="E2_0" slope="0.00" acceleration="1.17"/>
        <vehicle id="leader" x="626.36" y="749.14" angle="74.99" type="DEFAULT_VEHTYPE@leader" speed="14.88" pos="70.05" lane="E2_0" slope="0.00" acceleration="0.70"/>
    </timestep>
    <timestep time="5.40">
        <vehicle id="follower" x="592.12" y="739.96" angle="74.99" type="DEFAULT_VEHTYPE@follower" speed="13.46" pos="34.60" lane="E2_0" slope="0.00" acceleration="0.74"/>
        <vehicle id="leader" x="627.81" y="749.53" angle="74.99" type="DEFAULT_VEHTYPE@leader" speed="15.02" pos="71.55" lane="E2_0" slope="0.00" acceleration="1.40"/>
    </timestep>
    <timestep time="5.50">
        <vehicle id="follower" x="593.43" y="740.31" angle="74.99" type="DEFAULT_VEHTYPE@follower" speed="13.53" pos="35.95" lane="E2_0" slope="0.00" acceleration="0.64"/>
        <vehicle id="leader" x="629.26" y="749.92" angle="74.99" type="DEFAULT_VEHTYPE@leader" speed="14.99" pos="73.05" lane="E2_0" slope="0.00" acceleration="-0.30"/>
    </timestep>
    <timestep time="5.60">
        <vehicle id="follower" x="594.73" y="740.66" angle="74.99" type="DEFAULT_VEHTYPE@follower" speed="13.55" pos="37.31" lane="E2_0" slope="0.00" acceleration="0.26"/>
        <vehicle id="leader" x="630.72" y="750.31" angle="74.99" type="DEFAULT_VEHTYPE@leader" speed="15.06" pos="74.56" lane="E2_0" slope="0.00" acceleration="0.70"/>
    </timestep>
    <timestep time="5.70">
        <vehicle id="follower" x="596.05" y="741.01" angle="74.99" type="DEFAULT_VEHTYPE@follower" speed="13.59" pos="38.67" lane="E2_0" slope="0.00" acceleration="0.34"/>
        <vehicle id="leader" x="632.19" y="750.70" angle="74.99" type="DEFAULT_VEHTYPE@leader" speed="15.22" pos="76.08" lane="E2_0" slope="0.00" acceleration="1.60"/>
    </timestep>
    <timestep time="5.80">
        <vehicle id="follower" x="597.37" y="741.37" angle="74.99" type="DEFAULT_VEHTYPE@follower" speed="13.70" pos="40.04" lane="E2_0" slope="0.00" acceleration="1.15"/>
        <vehicle id="leader" x="633.65" y="751.09" angle="74.99" type="DEFAULT_VEHTYPE@leader" speed="15.16" pos="77.60" lane="E2_0" slope="0.00" acceleration="-0.60"/>
    </timestep>
    <timestep time="5.90">
        <vehicle id="follower" x="598.69" y="741.72" angle="74.99" type="DEFAULT_VEHTYPE@follower" speed="13.64" pos="41.40" lane="E2_0" slope="0.00" acceleration="-0.65"/>
        <vehicle id="leader" x="635.12" y="751.49" angle="74.99" type="DEFAULT_VEHTYPE@leader" speed="15.16" pos="79.11" lane="E2_0" slope="0.00" acceleration="0.00"/>
    </timestep>
    <timestep time="6.00">
        <vehicle id="follower" x="600.01" y="742.07" angle="74.99" type="DEFAULT_VEHTYPE@follower" speed="13.71" pos="42.77" lane="E2_0" slope="0.00" acceleration="0.77"/>
        <vehicle id="leader" x="636.57" y="751.88" angle="74.99" type="DEFAULT_VEHTYPE@leader" speed="15.06" pos="80.62" lane="E2_0" slope="0.00" acceleration="-1.00"/>
    </timestep>
    <timestep time="6.10">
        <vehicle id="follower" x="601.33" y="742.43" angle="74.99" type="DEFAULT_VEHTYPE@follower" speed="13.61" pos="44.13" lane="E2_0" slope="0.00" acceleration="-1.04"/>
        <vehicle id="leader" x="638.03" y="752.27" angle="74.99" type="DEFAULT_VEHTYPE@leader" speed="15.12" pos="82.13" lane="E2_0" slope="0.00" acceleration="0.60"/>
    </timestep>
    <timestep time="6.20">
        <vehicle id="follower" x="602.65" y="742.78" angle="74.99" type="DEFAULT_VEHTYPE@follower" speed="13.75" pos="45.51" lane="E2_0" slope="0.00" acceleration="1.43"/>
        <vehicle id="leader" x="639.50" y="752.66" angle="74.99" type="DEFAULT_VEHTYPE@leader" speed="15.16" pos="83.65" lane="E2_0" slope="0.00" acceleration="0.40"/>
    </timestep>
    <timestep time="6.30">
        <vehicle id="follower" x="603.98" y="743.14" angle="74.99" type="DEFAULT_VEHTYPE@follower" speed="13.72" pos="46.88" lane="E2_0" slope="0.00" acceleration="-0.31"/>
        <vehicle id="leader" x="640.98" y="753.06" angle="74.99" type="DEFAULT_VEHTYPE@leader" speed="15.40" pos="85.19" lane="E2_0" slope="0.00" acceleration="2.40"/>
    </timestep>
    <timestep time="6.40">
        <vehicle id="follower" x="605.32" y="743.50" angle="74.99" type="DEFAULT_VEHTYPE@follower" speed="13.86" pos="48.27" lane="E2_0" slope="0.00" acceleration="1.40"/>
        <vehicle id="leader" x="642.49" y="753.46" angle="74.99" type="DEFAULT_VEHTYPE@leader" speed="15.63" pos="86.75" lane="E2_0" slope="0.00" acceleration="2.30"/>
    </timestep>
    <timestep time="6.50">
        <vehicle id="follower" x="606.68" y="743.86" angle="74.99" type="DEFAULT_VEHTYPE@follower" speed="14.07" pos="49.67" lane="E2_0" slope="0.00" acceleration="2.05"/>
        <vehicle id="leader" x="644.01" y="753.87" angle="74.99" type="DEFAULT_VEHTYPE@leader" speed="15.74" pos="88.33" lane="E2_0" slope="0.00" acceleration="1.10"/>
    </timestep>
    <timestep time="6.60">
        <vehicle id="follower" x="608.05" y="744.23" angle="74.99" type="DEFAULT_VEHTYPE@follower" speed="14.16" pos="51.09" lane="E2_0" slope="0.00" acceleration="0.97"/>
        <vehicle id="leader" x="645.53" y="754.28" angle="74.99" type="DEFAULT_VEHTYPE@leader" speed="15.76" pos="89.90" lane="E2_0" slope="0.00" acceleration="0.20"/>
    </timestep>
    <timestep time="6.70">
        <vehicle id="follower" x="609.42" y="744.60" angle="74.99" type="DEFAULT_VEHTYPE@follower" speed="14.18" pos="52.51" lane="E2_0" slope="0.00" acceleration="0.20"/>
        <vehicle id="leader" x="647.07" y="754.69" angle="74.99" type="DEFAULT_VEHTYPE@leader" speed="15.87" pos="91.49" lane="E2_0" slope="0.00" acceleration="1.10"/>
    </timestep>
    <timestep time="6.80">
        <vehicle id="follower" x="610.80" y="744.97" angle="74.99" type="DEFAULT_VEHTYPE@follower" speed="14.31" pos="53.94" lane="E2_0" slope="0.00" acceleration="1.22"/>
        <vehicle id="leader" x="648.60" y="755.10" angle="74.99" type="DEFAULT_VEHTYPE@leader" speed="15.90" pos="93.08" lane="E2_0" slope="0.00" acceleration="0.30"/>
    </timestep>
    <timestep time="6.90">
        <vehicle id="follower" x="612.18" y="745.34" angle="74.99" type="DEFAULT_VEHTYPE@follower" speed="14.34" pos="55.37" lane="E2_0" slope="0.00" acceleration="0.35"/>
        <vehicle id="leader" x="650.16" y="755.52" angle="74.99" type="DEFAULT_VEHTYPE@leader" speed="16.10" pos="94.69" lane="E2_0" slope="0.00" acceleration="1.96"/>
    </timestep>
    <timestep time="7.00">
        <vehicle id="follower" x="613.58" y="745.71" angle="74.99" type="DEFAULT_VEHTYPE@follower" speed="14.50" pos="56.82" lane="E2_0" slope="0.00" acceleration="1.63"/>
        <vehicle id="leader" x="651.71" y="755.93" angle="74.99" type="DEFAULT_VEHTYPE@leader" speed="16.07" pos="96.29" lane="E2_0" slope="0.00" acceleration="-0.26"/>
    </timestep>
    <timestep time="7.10">
        <vehicle id="follower" x="614.98" y="746.09" angle="74.99" type="DEFAULT_VEHTYPE@follower" speed="14.44" pos="58.27" lane="E2_0" slope="0.00" acceleration="-0.63"/>
        <vehicle id="leader" x="653.26" y="756.35" angle="74.99" type="DEFAULT_VEHTYPE@leader" speed="16.07" pos="97.90" lane="E2_0" slope="0.00" acceleration="0.00"/>
    </timestep>
    <timestep time="7.20">
        <vehicle id="follower" x="616.38" y="746.46" angle="74.99" type="DEFAULT_VEHTYPE@follower" speed="14.51" pos="59.72" lane="E2_0" slope="0.00" acceleration="0.74"/>
        <vehicle id="leader" x="654.81" y="756.77" angle="74.99" type="DEFAULT_VEHTYPE@leader" speed="16.07" pos="99.51" lane="E2_0" slope="0.00" acceleration="0.00"/>
    </timestep>
    <timestep time="7.30">
        <vehicle id="follower" x="617.79" y="746.84" angle="74.99" type="DEFAULT_VEHTYPE@follower" speed="14.56" pos="61.17" lane="E2_0" slope="0.00" acceleration="0.44"/>
        <vehicle id="leader" x="656.37" y="757.18" angle="74.99" type="DEFAULT_VEHTYPE@leader" speed="16.07" pos="101.12" lane="E2_0" slope="0.00" acceleration="0.00"/>
    </timestep>
    <timestep time="7.40">
        <vehicle id="follower" x="619.19" y="747.22" angle="74.99" type="DEFAULT_VEHTYPE@follower" speed="14.58" pos="62.63" lane="E2_0" slope="0.00" acceleration="0.21"/>
        <vehicle id="leader" x="657.92" y="757.60" angle="74.99" type="DEFAULT_VEHTYPE@leader" speed="16.07" pos="102.72" lane="E2_0" slope="0.00" acceleration="0.00"/>
    </timestep>
    <timestep time="7.50">
        <vehicle id="follower" x="620.60" y="747.59" angle="74.99" type="DEFAULT_VEHTYPE@follower" speed="14.57" pos="64.09" lane="E2_0" slope="0.00" acceleration="-0.07"/>
        <vehicle id="leader" x="659.47" y="758.01" angle="74.99" type="DEFAULT_VEHTYPE@leader" speed="16.07" pos="104.33" lane="E2_0" slope="0.00" acceleration="0.00"/>
    </timestep>
    <timestep time="7.60">
        <vehicle id="follower" x="622.02" y="747.97" angle="74.99" type="DEFAULT_VEHTYPE@follower" speed="14.64" pos="65.55" lane="E2_0" slope="0.00" acceleration="0.66"/>
        <vehicle id="leader" x="661.02" y="758.43" angle="74.99" type="DEFAULT_VEHTYPE@leader" speed="16.01" pos="105.93" lane="E2_0" slope="0.00" acceleration="-0.60"/>
    </timestep>
    <timestep time="7.70">
        <vehicle id="follower" x="623.42" y="748.35" angle="74.99" type="DEFAULT_VEHTYPE@follower" speed="14.54" pos="67.01" lane="E2_0" slope="0.00" acceleration="-0.93"/>
        <vehicle id="leader" x="662.57" y="758.84" angle="74.99" type="DEFAULT_VEHTYPE@leader" speed="16.04" pos="107.53" lane="E2_0" slope="0.00" acceleration="0.30"/>
    </timestep>
    <timestep time="7.80">
        <vehicle id="follower" x="624.83" y="748.73" angle="74.99" type="DEFAULT_VEHTYPE@follower" speed="14.56" pos="68.46" lane="E2_0" slope="0.00" acceleration="0.17"/>
        <vehicle id="leader" x="664.12" y="759.26" angle="74.99" type="DEFAULT_VEHTYPE@leader" speed="16.10" pos="109.14" lane="E2_0" slope="0.00" acceleration="0.56"/>
    </timestep>
    <timestep time="7.90">
        <vehicle id="follower" x="626.24" y="749.11" angle="74.99" type="DEFAULT_VEHTYPE@follower" speed="14.61" pos="69.92" lane="E2_0" slope="0.00" acceleration="0.45"/>
        <vehicle id="leader" x="665.68" y="759.68" angle="74.99" type="DEFAULT_VEHTYPE@leader" speed="16.10" pos="110.75" lane="E2_0" slope="0.00" acceleration="0.00"/>
    </timestep>
    <timestep time="8.00">
        <vehicle id="follower" x="627.65" y="749.49" angle="74.99" type="DEFAULT_VEHTYPE@follower" speed="14.66" pos="71.39" lane="E2_0" slope="0.00" acceleration="0.54"/>
        <vehicle id="leader" x="667.23" y="760.09" angle="74.99" type="DEFAULT_VEHTYPE@leader" speed="16.10" pos="112.36" lane="E2_0" slope="0.00" acceleration="0.00"/>
    </timestep>
    <timestep time="8.10">
        <vehicle id="follower" x="629.07" y="749.87" angle="74.99" type="DEFAULT_VEHTYPE@follower" speed="14.69" pos="72.86" lane="E2_0" slope="0.00" acceleration="0.31"/>
        <vehicle id="leader" x="668.79" y="760.51" angle="74.99" type="DEFAULT_VEHTYPE@leader" speed="16.10" pos="113.97" lane="E2_0" slope="0.00" acceleration="0.00"/>
    </timestep>
    <timestep time="8.20">
        <vehicle id="follower" x="630.50" y="750.25" angle="74.99" type="DEFAULT_VEHTYPE@follower" speed="14.74" pos="74.33" lane="E2_0" slope="0.00" acceleration="0.48"/>
        <vehicle id="leader" x="670.34" y="760.93" angle="74.99" type="DEFAULT_VEHTYPE@leader" speed="16.10" pos="115.58" lane="E2_0" slope="0.00" acceleration="0.00"/>
    </timestep>
    <timestep time="8.30">
        <vehicle id="follower" x="631.92" y="750.63" angle="74.99" type="DEFAULT_VEHTYPE@follower" speed="14.73" pos="75.81" lane="E2_0" slope="0.00" acceleration="-0.07"/>
        <vehicle id="leader" x="671.90" y="761.35" angle="74.99" type="DEFAULT_VEHTYPE@leader" speed="16.10" pos="117.19" lane="E2_0" slope="0.00" acceleration="0.00"/>
    </timestep>
    <timestep time="8.40">
        <vehicle id="follower" x="633.35" y="751.01" angle="74.99" type="DEFAULT_VEHTYPE@follower" speed="14.82" pos="77.29" lane="E2_0" slope="0.00" acceleration="0.84"/>
        <vehicle id="leader" x="673.45" y="761.76" angle="74.99" type="DEFAULT_VEHTYPE@leader" speed="16.10" pos="118.80" lane="E2_0" slope="0.00" acceleration="0.00"/>
    </timestep>
    <timestep time="8.50">
        <vehicle id="follower" x="634.78" y="751.39" angle="74.99" type="DEFAULT_VEHTYPE@follower" speed="14.77" pos="78.76" lane="E2_0" slope="0.00" acceleration="-0.51"/>
        <vehicle id="leader" x="675.00" y="762.18" angle="74.99" type="DEFAULT_VEHTYPE@leader" speed="16.10" pos="120.41" lane="E2_0" slope="0.00" acceleration="0.00"/>
    </timestep>
    <timestep time="8.60">
        <vehicle id="follower" x="636.20" y="751.78" angle="74.99" type="DEFAULT_VEHTYPE@follower" speed="14.75" pos="80.24" lane="E2_0" slope="0.00" acceleration="-0.19"/>
        <vehicle id="leader" x="676.56" y="762.60" angle="74.99" type="DEFAULT_VEHTYPE@leader" speed="16.10" pos="122.02" lane="E2_0" slope="0.00" acceleration="0.00"/>
    </timestep>
    <timestep time="8.70">
        <vehicle id="follower" x="637.64" y="752.16" angle="74.99" type="DEFAULT_VEHTYPE@follower" speed="14.89" pos="81.73" lane="E2_0" slope="0.00" acceleration="1.41"/>
        <vehicle id="leader" x="678.11" y="763.01" angle="74.99" type="DEFAULT_VEHTYPE@leader" speed="16.10" pos="123.63" lane="E2_0" slope="0.00" acceleration="0.00"/>
    </timestep>
    <timestep time="8.80">
        <vehicle id="follower" x="639.07" y="752.55" angle="74.99" type="DEFAULT_VEHTYPE@follower" speed="14.79" pos="83.21" lane="E2_0" slope="0.00" acceleration="-0.95"/>
        <vehicle id="leader" x="679.67" y="763.43" angle="74.99" type="DEFAULT_VEHTYPE@leader" speed="16.10" pos="125.24" lane="E2_0" slope="0.00" acceleration="0.00"/>
    </timestep>
    <timestep time="8.90">