<?xml version="1.0" encoding="UTF-8"?>

<!-- generated on 2023-04-04 14:23:43 by Eclipse SUMO sumo Version 1.16.0
<configuration xmlns:xsi="http://www.w3.org/2001/XMLSchema-instance" xsi:noNamespaceSchemaLocation="http://sumo.dlr.de/xsd/sumoConfiguration.xsd">

    <input>
        <net-file value="c:\Users\aryak\Projects\cf-sumo\sumo-xml\net.net.xml"/>
    </input>

    <output>
        <fcd-output value="c:\Users\aryak\Projects\cf-sumo\sumo-xml\output\871_fcd.xml"/>
        <fcd-output.acceleration value="true"/>
    </output>

    <time>
        <step-length value="0.1"/>
    </time>

    <report>
        <no-step-log value="true"/>
    </report>

    <traci_server>
        <remote-port value="50479"/>
    </traci_server>

</configuration>
-->

<fcd-export xmlns:xsi="http://www.w3.org/2001/XMLSchema-instance" xsi:noNamespaceSchemaLocation="http://sumo.dlr.de/xsd/fcd_file.xsd">
    <timestep time="0.00">
        <vehicle id="leader" x="563.63" y="732.32" angle="74.99" type="DEFAULT_VEHTYPE@leader" speed="10.35" pos="5.10" lane="E2_0" slope="0.00" acceleration="0.00"/>
    </timestep>
    <timestep time="0.10">
        <vehicle id="leader" x="564.65" y="732.59" angle="74.99" type="DEFAULT_VEHTYPE@leader" speed="10.55" pos="6.15" lane="E2_0" slope="0.00" acceleration="2.00"/>
    </timestep>
    <timestep time="0.20">
        <vehicle id="leader" x="565.67" y="732.87" angle="74.99" type="DEFAULT_VEHTYPE@leader" speed="10.63" pos="7.22" lane="E2_0" slope="0.00" acceleration="0.80"/>
    </timestep>
    <timestep time="0.30">
        <vehicle id="leader" x="566.69" y="733.14" angle="74.99" type="DEFAULT_VEHTYPE@leader" speed="10.53" pos="8.27" lane="E2_0" slope="0.00" acceleration="-1.00"/>
    </timestep>
    <timestep time="0.40">
        <vehicle id="leader" x="567.70" y="733.41" angle="74.99" type="DEFAULT_VEHTYPE@leader" speed="10.48" pos="9.32" lane="E2_0" slope="0.00" acceleration="-0.50"/>
    </timestep>
    <timestep time="0.50">
        <vehicle id="leader" x="568.73" y="733.69" angle="74.99" type="DEFAULT_VEHTYPE@leader" speed="10.66" pos="10.39" lane="E2_0" slope="0.00" acceleration="1.80"/>
    </timestep>
    <timestep time="0.60">
        <vehicle id="leader" x="569.77" y="733.97" angle="74.99" type="DEFAULT_VEHTYPE@leader" speed="10.78" pos="11.46" lane="E2_0" slope="0.00" acceleration="1.20"/>
    </timestep>
    <timestep time="0.70">
        <vehicle id="leader" x="570.81" y="734.25" angle="74.99" type="DEFAULT_VEHTYPE@leader" speed="10.78" pos="12.54" lane="E2_0" slope="0.00" acceleration="0.00"/>
    </timestep>
    <timestep time="0.80">
        <vehicle id="leader" x="571.85" y="734.53" angle="74.99" type="DEFAULT_VEHTYPE@leader" speed="10.78" pos="13.62" lane="E2_0" slope="0.00" acceleration="0.00"/>
    </timestep>
    <timestep time="0.90">
        <vehicle id="leader" x="572.90" y="734.81" angle="74.99" type="DEFAULT_VEHTYPE@leader" speed="10.82" pos="14.70" lane="E2_0" slope="0.00" acceleration="0.40"/>
    </timestep>
    <timestep time="1.00">
        <vehicle id="leader" x="573.94" y="735.09" angle="74.99" type="DEFAULT_VEHTYPE@leader" speed="10.82" pos="15.78" lane="E2_0" slope="0.00" acceleration="0.00"/>
    </timestep>
    <timestep time="1.10">
        <vehicle id="leader" x="574.99" y="735.37" angle="74.99" type="DEFAULT_VEHTYPE@leader" speed="10.82" pos="16.87" lane="E2_0" slope="0.00" acceleration="0.00"/>
    </timestep>
    <timestep time="1.20">
        <vehicle id="leader" x="576.03" y="735.65" angle="74.99" type="DEFAULT_VEHTYPE@leader" speed="10.82" pos="17.95" lane="E2_0" slope="0.00" acceleration="0.00"/>
    </timestep>
    <timestep time="1.30">
        <vehicle id="leader" x="577.10" y="735.93" angle="74.99" type="DEFAULT_VEHTYPE@leader" speed="11.07" pos="19.05" lane="E2_0" slope="0.00" acceleration="2.50"/>
    </timestep>
    <timestep time="1.40">
        <vehicle id="leader" x="578.18" y="736.22" angle="74.99" type="DEFAULT_VEHTYPE@leader" speed="11.16" pos="20.17" lane="E2_0" slope="0.00" acceleration="0.90"/>
    </timestep>
    <timestep time="1.50">
        <vehicle id="leader" x="579.26" y="736.51" angle="74.99" type="DEFAULT_VEHTYPE@leader" speed="11.19" pos="21.29" lane="E2_0" slope="0.00" acceleration="0.30"/>
    </timestep>
    <timestep time="1.60">
        <vehicle id="leader" x="580.35" y="736.80" angle="74.99" type="DEFAULT_VEHTYPE@leader" speed="11.27" pos="22.42" lane="E2_0" slope="0.00" acceleration="0.80"/>
    </timestep>
    <timestep time="1.70">
        <vehicle id="leader" x="581.44" y="737.10" angle="74.99" type="DEFAULT_VEHTYPE@leader" speed="11.27" pos="23.54" lane="E2_0" slope="0.00" acceleration="0.00"/>
    </timestep>
    <timestep time="1.80">
        <vehicle id="leader" x="582.53" y="737.39" angle="74.99" type="DEFAULT_VEHTYPE@leader" speed="11.27" pos="24.67" lane="E2_0" slope="0.00" acceleration="0.00"/>
    </timestep>
    <timestep time="1.90">
        <vehicle id="leader" x="583.64" y="737.68" angle="74.99" type="DEFAULT_VEHTYPE@leader" speed="11.46" pos="25.82" lane="E2_0" slope="0.00" acceleration="1.90"/>
    </timestep>
    <timestep time="2.00">
        <vehicle id="leader" x="584.75" y="737.98" angle="74.99" type="DEFAULT_VEHTYPE@leader" speed="11.51" pos="26.97" lane="E2_0" slope="0.00" acceleration="0.50"/>
    </timestep>
    <timestep time="2.10">
        <vehicle id="leader" x="585.87" y="738.28" angle="74.99" type="DEFAULT_VEHTYPE@leader" speed="11.63" pos="28.13" lane="E2_0" slope="0.00" acceleration="1.20"/>
    </timestep>
    <timestep time="2.20">
        <vehicle id="leader" x="587.01" y="738.59" angle="74.99" type="DEFAULT_VEHTYPE@leader" speed="11.76" pos="29.31" lane="E2_0" slope="0.00" acceleration="1.30"/>
    </timestep>
    <timestep time="2.30">
        <vehicle id="leader" x="588.15" y="738.89" angle="74.99" type="DEFAULT_VEHTYPE@leader" speed="11.82" pos="30.49" lane="E2_0" slope="0.00" acceleration="0.60"/>
    </timestep>
    <timestep time="2.40">
        <vehicle id="leader" x="589.29" y="739.20" angle="74.99" type="DEFAULT_VEHTYPE@leader" speed="11.82" pos="31.67" lane="E2_0" slope="0.00" acceleration="0.00"/>
    </timestep>
    <timestep time="2.50">
        <vehicle id="leader" x="590.43" y="739.51" angle="74.99" type="DEFAULT_VEHTYPE@leader" speed="11.84" pos="32.85" lane="E2_0" slope="0.00" acceleration="0.20"/>
    </timestep>
    <timestep time="2.60">
        <vehicle id="leader" x="591.60" y="739.82" angle="74.99" type="DEFAULT_VEHTYPE@leader" speed="12.04" pos="34.06" lane="E2_0" slope="0.00" acceleration="2.00"/>
    </timestep>
    <timestep time="2.70">
        <vehicle id="leader" x="592.76" y="740.13" angle="74.99" type="DEFAULT_VEHTYPE@leader" speed="12.04" pos="35.26" lane="E2_0" slope="0.00" acceleration="0.00"/>
    </timestep>
    <timestep time="2.80">
        <vehicle id="leader" x="593.94" y="740.45" angle="74.99" type="DEFAULT_VEHTYPE@leader" speed="12.19" pos="36.48" lane="E2_0" slope="0.00" acceleration="1.50"/>
    </timestep>
    <timestep time="2.90">
        <vehicle id="leader" x="595.13" y="740.77" angle="74.99" type="DEFAULT_VEHTYPE@leader" speed="12.37" pos="37.72" lane="E2_0" slope="0.00" acceleration="1.80"/>
    </timestep>
    <timestep time="3.00">
        <vehicle id="follower" x="563.63" y="732.32" angle="74.99" type="DEFAULT_VEHTYPE@follower" speed="10.35" pos="5.10" lane="E2_0" slope="0.00" acceleration="0.00"/>
        <vehicle id="leader" x="596.33" y="741.09" angle="74.99" type="DEFAULT_VEHTYPE@leader" speed="12.37" pos="38.95" lane="E2_0" slope="0.00" acceleration="0.00"/>
    </timestep>
    <timestep time="3.10">
        <vehicle id="follower" x="564.66" y="732.60" angle="74.99" type="DEFAULT_VEHTYPE@follower" speed="10.69" pos="6.17" lane="E2_0" slope="0.00" acceleration="3.40"/>
        <vehicle id="leader" x="597.52" y="741.41" angle="74.99" type="DEFAULT_VEHTYPE@leader" speed="12.37" pos="40.19" lane="E2_0" slope="0.00" acceleration="0.00"/>
    </timestep>
    <timestep time="3.20">
        <vehicle id="follower" x="565.73" y="732.88" angle="74.99" type="DEFAULT_VEHTYPE@follower" speed="11.06" pos="7.27" lane="E2_0" slope="0.00" acceleration="3.68"/>
        <vehicle id="leader" x="598.72" y="741.73" angle="74.99" type="DEFAULT_VEHTYPE@leader" speed="12.37" pos="41.43" lane="E2_0" slope="0.00" acceleration="0.00"/>
    </timestep>
    <timestep time="3.30">
        <vehicle id="follower" x="566.83" y="733.18" angle="74.99" type="DEFAULT_VEHTYPE@follower" speed="11.45" pos="8.42" lane="E2_0" slope="0.00" acceleration="3.94"/>
        <vehicle id="leader" x="599.91" y="742.05" angle="74.99" type="DEFAULT_VEHTYPE@leader" speed="12.37" pos="42.67" lane="E2_0" slope="0.00" acceleration="0.00"/>
    </timestep>
    <timestep time="3.40">
        <vehicle id="follower" x="567.97" y="733.49" angle="74.99" type="DEFAULT_VEHTYPE@follower" speed="11.79" pos="9.60" lane="E2_0" slope="0.00" acceleration="3.34"/>
        <vehicle id="leader" x="601.11" y="742.37" angle="74.99" type="DEFAULT_VEHTYPE@leader" speed="12.37" pos="43.90" lane="E2_0" slope="0.00" acceleration="0.00"/>
    </timestep>
    <timestep time="3.50">
        <vehicle id="follower" x="569.15" y="733.80" angle="74.99" type="DEFAULT_VEHTYPE@follower" speed="12.16" pos="10.81" lane="E2_0" slope="0.00" acceleration="3.75"/>
        <vehicle id="leader" x="602.31" y="742.69" angle="74.99" type="DEFAULT_VEHTYPE@leader" speed="12.45" pos="45.15" lane="E2_0" slope="0.00" acceleration="0.80"/>
    </timestep>
    <timestep time="3.60">
        <vehicle id="follower" x="570.34" y="734.12" angle="74.99" type="DEFAULT_VEHTYPE@follower" speed="12.37" pos="12.05" lane="E2_0" slope="0.00" acceleration="2.07"/>
        <vehicle id="leader" x="603.52" y="743.02" angle="74.99" type="DEFAULT_VEHTYPE@leader" speed="12.56" pos="46.40" lane="E2_0" slope="0.00" acceleration="1.10"/>
    </timestep>
    <timestep time="3.70">
        <vehicle id="follower" x="571.57" y="734.45" angle="74.99" type="DEFAULT_VEHTYPE@follower" speed="12.72" pos="13.32" lane="E2_0" slope="0.00" acceleration="3.55"/>
        <vehicle id="leader" x="604.75" y="743.34" angle="74.99" type="DEFAULT_VEHTYPE@leader" speed="12.68" pos="47.67" lane="E2_0" slope="0.00" acceleration="1.20"/>
    </timestep>
    <timestep time="3.80">
        <vehicle id="follower" x="572.83" y="734.79" angle="74.99" type="DEFAULT_VEHTYPE@follower" speed="13.01" pos="14.62" lane="E2_0" slope="0.00" acceleration="2.86"/>
        <vehicle id="leader" x="606.00" y="743.68" angle="74.99" type="DEFAULT_VEHTYPE@leader" speed="12.93" pos="48.97" lane="E2_0" slope="0.00" acceleration="2.50"/>
    </timestep>
    <timestep time="3.90">
        <vehicle id="follower" x="574.11" y="735.13" angle="74.99" type="DEFAULT_VEHTYPE@follower" speed="13.25" pos="15.95" lane="E2_0" slope="0.00" acceleration="2.38"/>
        <vehicle id="leader" x="607.24" y="744.01" angle="74.99" type="DEFAULT_VEHTYPE@leader" speed="12.93" pos="50.26" lane="E2_0" slope="0.00" acceleration="0.00"/>
    </timestep>
    <timestep time="4.00">
        <vehicle id="follower" x="575.41" y="735.48" angle="74.99" type="DEFAULT_VEHTYPE@follower" speed="13.51" pos="17.30" lane="E2_0" slope="0.00" acceleration="2.66"/>
        <vehicle id="leader" x="608.50" y="744.35" angle="74.99" type="DEFAULT_VEHTYPE@leader" speed="13.03" pos="51.56" lane="E2_0" slope="0.00" acceleration="1.00"/>
    </timestep>
    <timestep time="4.10">
        <vehicle id="follower" x="576.74" y="735.84" angle="74.99" type="DEFAULT_VEHTYPE@follower" speed="13.79" pos="18.68" lane="E2_0" slope="0.00" acceleration="2.81"/>
        <vehicle id="leader" x="609.77" y="744.69" angle="74.99" type="DEFAULT_VEHTYPE@leader" speed="13.11" pos="52.87" lane="E2_0" slope="0.00" acceleration="0.80"/>
    </timestep>
    <timestep time="4.20">
        <vehicle id="follower" x="578.08" y="736.20" angle="74.99" type="DEFAULT_VEHTYPE@follower" speed="13.87" pos="20.07" lane="E2_0" slope="0.00" acceleration="0.74"/>
        <vehicle id="leader" x="611.06" y="745.04" angle="74.99" type="DEFAULT_VEHTYPE@leader" speed="13.35" pos="54.21" lane="E2_0" slope="0.00" acceleration="2.40"/>
    </timestep>
    <timestep time="4.30">
        <vehicle id="follower" x="579.44" y="736.56" angle="74.99" type="DEFAULT_VEHTYPE@follower" speed="14.11" pos="21.48" lane="E2_0" slope="0.00" acceleration="2.41"/>
        <vehicle id="leader" x="612.37" y="745.39" angle="74.99" type="DEFAULT_VEHTYPE@leader" speed="13.53" pos="55.56" lane="E2_0" slope="0.00" acceleration="1.80"/>
    </timestep>
    <timestep time="4.40">
        <vehicle id="follower" x="580.81" y="736.93" angle="74.99" type="DEFAULT_VEHTYPE@follower" speed="14.14" pos="22.89" lane="E2_0" slope="0.00" acceleration="0.29"/>
        <vehicle id="leader" x="613.71" y="745.75" angle="74.99" type="DEFAULT_VEHTYPE@leader" speed="13.93" pos="56.95" lane="E2_0" slope="0.00" acceleration="4.00"/>
    </timestep>
    <timestep time="4.50">
        <vehicle id="follower" x="582.19" y="737.30" angle="74.99" type="DEFAULT_VEHTYPE@follower" speed="14.28" pos="24.32" lane="E2_0" slope="0.00" acceleration="1.39"/>
        <vehicle id="leader" x="615.07" y="746.11" angle="74.99" type="DEFAULT_VEHTYPE@leader" speed="14.10" pos="58.36" lane="E2_0" slope="0.00" acceleration="1.70"/>
    </timestep>
    <timestep time="4.60">
        <vehicle id="follower" x="583.58" y="737.67" angle="74.99" type="DEFAULT_VEHTYPE@follower" speed="14.43" pos="25.76" lane="E2_0" slope="0.00" acceleration="1.53"/>
        <vehicle id="leader" x="616.46" y="746.48" angle="74.99" type="DEFAULT_VEHTYPE@leader" speed="14.36" pos="59.80" lane="E2_0" slope="0.00" acceleration="2.60"/>
    </timestep>
    <timestep time="4.70">
        <vehicle id="follower" x="585.00" y="738.05" angle="74.99" type="DEFAULT_VEHTYPE@follower" speed="14.69" pos="27.23" lane="E2_0" slope="0.00" acceleration="2.65"/>
        <vehicle id="leader" x="617.85" y="746.86" angle="74.99" type="DEFAULT_VEHTYPE@leader" speed="14.42" pos="61.24" lane="E2_0" slope="0.00" acceleration="0.60"/>
    </timestep>
    <timestep time="4.80">
        <vehicle id="follower" x="586.41" y="738.43" angle="74.99" type="DEFAULT_VEHTYPE@follower" speed="14.62" pos="28.69" lane="E2_0" slope="0.00" acceleration="-0.77"/>
        <vehicle id="leader" x="619.26" y="747.24" angle="74.99" type="DEFAULT_VEHTYPE@leader" speed="14.58" pos="62.70" lane="E2_0" slope="0.00" acceleration="1.60"/>
    </timestep>
    <timestep time="4.90">
        <vehicle id="follower" x="587.84" y="738.81" angle="74.99" type="DEFAULT_VEHTYPE@follower" speed="14.81" pos="30.17" lane="E2_0" slope="0.00" acceleration="1.88"/>
        <vehicle id="leader" x="620.67" y="747.61" angle="74.99" type="DEFAULT_VEHTYPE@leader" speed="14.63" pos="64.16" lane="E2_0" slope="0.00" acceleration="0.50"/>
    </timestep>
    <timestep time="5.00">
        <vehicle id="follower" x="589.26" y="739.19" angle="74.99" type="DEFAULT_VEHTYPE@follower" speed="14.64" pos="31.64" lane="E2_0" slope="0.00" acceleration="-1.60"/>
        <vehicle id="leader" x="622.10" y="748.00" angle="74.99" type="DEFAULT_VEHTYPE@leader" speed="14.73" pos="65.63" lane="E2_0" slope="0.00" acceleration="1.00"/>
    </timestep>
    <timestep time="5.10">
        <vehicle id="follower" x="590.69" y="739.58" angle="74.99" type="DEFAULT_VEHTYPE@follower" speed="14.84" pos="33.12" lane="E2_0" slope="0.00" acceleration="1.91"/>
        <vehicle id="leader" x="623.52" y="748.38" angle="74.99" type="DEFAULT_VEHTYPE@leader" speed="14.73" pos="67.11" lane="E2_0" slope="0.00" acceleration="0.00"/>
    </timestep>
    <timestep time="5.20">
        <vehicle id="follower" x="592.12" y="739.96" angle="74.99" type="DEFAULT_VEHTYPE@follower" speed="14.79" pos="34.60" lane="E2_0" slope="0.00" acceleration="-0.48"/>
        <vehicle id="leader" x="624.95" y="748.76" angle="74.99" type="DEFAULT_VEHTYPE@leader" speed="14.81" pos="68.59" lane="E2_0" slope="0.00" acceleration="0.80"/>
    </timestep>
    <timestep time="5.30">
        <vehicle id="follower" x="593.56" y="740.35" angle="74.99" type="DEFAULT_VEHTYPE@follower" speed="14.91" pos="36.09" lane="E2_0" slope="0.00" acceleration="1.24"/>
        <vehicle id="leader" x="626.39" y="749.15" angle="74.99" type="DEFAULT_VEHTYPE@leader" speed="14.88" pos="70.08" lane="E2_0" slope="0.00" acceleration="0.70"/>
    </timestep>
    <timestep time="5.40">
        <vehicle id="follower" x="595.01" y="740.73" angle="74.99" type="DEFAULT_VEHTYPE@follower" speed="14.97" pos="37.59" lane="E2_0" slope="0.00" acceleration="0.60"/>
        <vehicle id="leader" x="627.84" y="749.53" angle="74.99" type="DEFAULT_VEHTYPE@leader" speed="15.02" pos="71.58" lane="E2_0" slope="0.00" acceleration="1.40"/>
    </timestep>
    <timestep time="5.50">
        <vehicle id="follower" x="596.46" y="741.12" angle="74.99" type="DEFAULT_VEHTYPE@follower" speed="15.00" pos="39.09" lane="E2_0" slope="0.00" acceleration="0.27"/>
        <vehicle id="leader" x="629.29" y="749.92" angle="74.99" type="DEFAULT_VEHTYPE@leader" speed="14.99" pos="73.08" lane="E2_0" slope="0.00" acceleration="-0.30"/>
    </timestep>
    <timestep time="5.60">
        <vehicle id="follower" x="597.90" y="741.51" angle="74.99" type="DEFAULT_VEHTYPE@follower" speed="15.01" pos="40.59" lane="E2_0" slope="0.00" acceleration="0.10"/>
        <vehicle id="leader" x="630.74" y="750.31" angle="74.99" type="DEFAULT_VEHTYPE@leader" speed="15.06" pos="74.58" lane="E2_0" slope="0.00" acceleration="0.70"/>
    </timestep>
    <timestep time="5.70">
        <vehicle id="follower" x="599.35" y="741.90" angle="74.99" type="DEFAULT_VEHTYPE@follower" speed="15.01" pos="42.09" lane="E2_0" slope="0.00" acceleration="-0.00"/>
        <vehicle id="leader" x="632.21" y="750.71" angle="74.99" type="DEFAULT_VEHTYPE@leader" speed="15.22" pos="76.11" lane="E2_0" slope="0.00" acceleration="1.60"/>
    </timestep>
    <timestep time="5.80">
        <vehicle id="follower" x="600.81" y="742.29" angle="74.99" type="DEFAULT_VEHTYPE@follower" speed="15.11" pos="43.60" lane="E2_0" slope="0.00" acceleration="1.06"/>
        <vehicle id="leader" x="633.67" y="751.10" angle="74.99" type="DEFAULT_VEHTYPE@leader" speed="15.16" pos="77.62" lane="E2_0" slope="0.00" acceleration="-0.60"/>
    </timestep>
    <timestep time="5.90">
        <vehicle id="follower" x="602.26" y="742.68" angle="74.99" type="DEFAULT_VEHTYPE@follower" speed="14.99" pos="45.10" lane="E2_0" slope="0.00" acceleration="-1.21"/>
        <vehicle id="leader" x="635.14" y="751.49" angle="74.99" type="DEFAULT_VEHTYPE@leader" speed="15.16" pos="79.14" lane="E2_0" slope="0.00" acceleration="0.00"/>
    </timestep>
    <timestep time="6.00">
        <vehicle id="follower" x="603.72" y="743.07" angle="74.99" type="DEFAULT_VEHTYPE@follower" speed="15.08" pos="46.61" lane="E2_0" slope="0.00" acceleration="0.86"/>
        <vehicle id="leader" x="636.59" y="751.88" angle="74.99" type="DEFAULT_VEHTYPE@leader" speed="15.06" pos="80.64" lane="E2_0" slope="0.00" acceleration="-1.00"/>
    </timestep>
    <timestep time="6.10">
        <vehicle id="follower" x="605.16" y="743.45" angle="74.99" type="DEFAULT_VEHTYPE@follower" speed="14.91" pos="48.10" lane="E2_0" slope="0.00" acceleration="-1.71"/>
        <vehicle id="leader" x="638.05" y="752.27" angle="74.99" type="DEFAULT_VEHTYPE@leader" speed="15.12" pos="82.16" lane="E2_0" slope="0.00" acceleration="0.60"/>
    </timestep>
    <timestep time="6.20">
        <vehicle id="follower" x="606.62" y="743.85" angle="74.99" type="DEFAULT_VEHTYPE@follower" speed="15.08" pos="49.61" lane="E2_0" slope="0.00" acceleration="1.75"/>
        <vehicle id="leader" x="639.52" y="752.67" angle="74.99" type="DEFAULT_VEHTYPE@leader" speed="15.16" pos="83.67" lane="E2_0" slope="0.00" acceleration="0.40"/>
    </timestep>
    <timestep time="6.30">
        <vehicle id="follower" x="608.06" y="744.23" angle="74.99" type="DEFAULT_VEHTYPE@follower" speed="14.99" pos="51.11" lane="E2_0" slope="0.00" acceleration="-0.89"/>
        <vehicle id="leader" x="641.01" y="753.06" angle="74.99" type="DEFAULT_VEHTYPE@leader" speed="15.40" pos="85.21" lane="E2_0" slope="0.00" acceleration="2.40"/>
    </timestep>
    <timestep time="6.40">
        <vehicle id="follower" x="609.53" y="744.63" angle="74.99" type="DEFAULT_VEHTYPE@follower" speed="15.13" pos="52.62" lane="E2_0" slope="0.00" acceleration="1.41"/>
        <vehicle id="leader" x="642.52" y="753.47" angle="74.99" type="DEFAULT_VEHTYPE@leader" speed="15.63" pos="86.78" lane="E2_0" slope="0.00" acceleration="2.30"/>
    </timestep>
    <timestep time="6.50">
        <vehicle id="follower" x="611.01" y="745.02" angle="74.99" type="DEFAULT_VEHTYPE@follower" speed="15.38" pos="54.16" lane="E2_0" slope="0.00" acceleration="2.48"/>
        <vehicle id="leader" x="644.04" y="753.88" angle="74.99" type="DEFAULT_VEHTYPE@leader" speed="15.74" pos="88.35" lane="E2_0" slope="0.00" acceleration="1.10"/>
    </timestep>
    <timestep time="6.60">
        <vehicle id="follower" x="612.50" y="745.42" angle="74.99" type="DEFAULT_VEHTYPE@follower" speed="15.45" pos="55.70" lane="E2_0" slope="0.00" acceleration="0.70"/>
        <vehicle id="leader" x="645.56" y="754.28" angle="74.99" type="DEFAULT_VEHTYPE@leader" speed="15.76" pos="89.92" lane="E2_0" slope="0.00" acceleration="0.20"/>
    </timestep>
    <timestep time="6.70">
        <vehicle id="follower" x="614.00" y="745.82" angle="74.99" type="DEFAULT_VEHTYPE@follower" speed="15.45" pos="57.25" lane="E2_0" slope="0.00" acceleration="-0.04"/>
        <vehicle id="leader" x="647.09" y="754.70" angle="74.99" type="DEFAULT_VEHTYPE@leader" speed="15.87" pos="91.51" lane="E2_0" slope="0.00" acceleration="1.10"/>
    </timestep>
    <timestep time="6.80">
        <vehicle id="follower" x="615.50" y="746.23" angle="74.99" type="DEFAULT_VEHTYPE@follower" speed="15.58" pos="58.81" lane="E2_0" slope="0.00" acceleration="1.32"/>
        <vehicle id="leader" x="648.63" y="755.11" angle="74.99" type="DEFAULT_VEHTYPE@leader" speed="15.90" pos="93.10" lane="E2_0" slope="0.00" acceleration="0.30"/>
    </timestep>
    <timestep time="6.90">
        <vehicle id="follower" x="617.01" y="746.63" angle="74.99" type="DEFAULT_VEHTYPE@follower" speed="15.59" pos="60.37" lane="E2_0" slope="0.00" acceleration="0.16"/>
        <vehicle id="leader" x="650.18" y="755.52" angle="74.99" type="DEFAULT_VEHTYPE@leader" speed="16.10" pos="94.71" lane="E2_0" slope="0.00" acceleration="1.96"/>
    </timestep>
    <timestep time="7.00">
        <vehicle id="follower" x="618.53" y="747.04" angle="74.99" type="DEFAULT_VEHTYPE@follower" speed="15.77" pos="61.94" lane="E2_0" slope="0.00" acceleration="1.77"/>
        <vehicle id="leader" x="651.73" y="755.94" angle="74.99" type="DEFAULT_VEHTYPE@leader" speed="16.07" pos="96.32" lane="E2_0" slope="0.00" acceleration="-0.26"/>
    </timestep>
    <timestep time="7.10">
        <vehicle id="follower" x="620.04" y="747.44" angle="74.99" type="DEFAULT_VEHTYPE@follower" speed="15.65" pos="63.51" lane="E2_0" slope="0.00" acceleration="-1.21"/>
        <vehicle id="leader" x="653.29" y="756.36" angle="74.99" type="DEFAULT_VEHTYPE@leader" speed="16.07" pos="97.93" lane="E2_0" slope="0.00" acceleration="0.00"/>
    </timestep>
    <timestep time="7.20">
        <vehicle id="follower" x="621.56" y="747.85" angle="74.99" type="DEFAULT_VEHTYPE@follower" speed="15.74" pos="65.08" lane="E2_0" slope="0.00" acceleration="0.86"/>
        <vehicle id="leader" x="654.84" y="756.77" angle="74.99" type="DEFAULT_VEHTYPE@leader" speed="16.07" pos="99.53" lane="E2_0" slope="0.00" acceleration="0.00"/>
    </timestep>
    <timestep time="7.30">
        <vehicle id="follower" x="623.09" y="748.26" angle="74.99" type="DEFAULT_VEHTYPE@follower" speed="15.78" pos="66.66" lane="E2_0" slope="0.00" acceleration="0.39"/>
        <vehicle id="leader" x="656.39" y="757.19" angle="74.99" type="DEFAULT_VEHTYPE@leader" speed="16.07" pos="101.14" lane="E2_0" slope="0.00" acceleration="0.00"/>
    </timestep>
    <timestep time="7.40">
        <vehicle id="follower" x="624.61" y="748.67" angle="74.99" type="DEFAULT_VEHTYPE@follower" speed="15.78" pos="68.24" lane="E2_0" slope="0.00" acceleration="0.03"/>
        <vehicle id="leader" x="657.94" y="757.60" angle="74.99" type="DEFAULT_VEHTYPE@leader" speed="16.07" pos="102.75" lane="E2_0" slope="0.00" acceleration="0.00"/>
    </timestep>
    <timestep time="7.50">
        <vehicle id="follower" x="626.13" y="749.08" angle="74.99" type="DEFAULT_VEHTYPE@follower" speed="15.74" pos="69.81" lane="E2_0" slope="0.00" acceleration="-0.39"/>
        <vehicle id="leader" x="659.49" y="758.02" angle="74.99" type="DEFAULT_VEHTYPE@leader" speed="16.07" pos="104.35" lane="E2_0" slope="0.00" acceleration="0.00"/>
    </timestep>
    <timestep time="7.60">
        <vehicle id="follower" x="627.66" y="749.49" angle="74.99" type="DEFAULT_VEHTYPE@follower" speed="15.81" pos="71.39" lane="E2_0" slope="0.00" acceleration="0.73"/>
        <vehicle id="leader" x="661.04" y="758.44" angle="74.99" type="DEFAULT_VEHTYPE@leader" speed="16.01" pos="105.95" lane="E2_0" slope="0.00" acceleration="-0.60"/>
    </timestep>
    <timestep time="7.70">
        <vehicle id="follower" x="629.17" y="749.89" angle="74.99" type="DEFAULT_VEHTYPE@follower" speed="15.66" pos="72.96" lane="E2_0" slope="0.00" acceleration="-1.58"/>
        <vehicle id="leader" x="662.59" y="758.85" angle="74.99" type="DEFAULT_VEHTYPE@leader" speed="16.04" pos="107.56" lane="E2_0" slope="0.00" acceleration="0.30"/>
    </timestep>
    <timestep time="7.80">
        <vehicle id="follower" x="630.68" y="750.30" angle="74.99" type="DEFAULT_VEHTYPE@follower" speed="15.65" pos="74.52" lane="E2_0" slope="0.00" acceleration="-0.07"/>
        <vehicle id="leader" x="664.15" y="759.27" angle="74.99" type="DEFAULT_VEHTYPE@leader" speed="16.10" pos="109.17" lane="E2_0" slope="0.00" acceleration="0.56"/>
    </timestep>
    <timestep time="7.90">
        <vehicle id="follower" x="632.20" y="750.70" angle="74.99" type="DEFAULT_VEHTYPE@follower" speed="15.68" pos="76.09" lane="E2_0" slope="0.00" acceleration="0.32"/>
        <vehicle id="leader" x="665.70" y="759.68" angle="74.99" type="DEFAULT_VEHTYPE@leader" speed="16.10" pos="110.78" lane="E2_0" slope="0.00" acceleration="0.00"/>
    </timestep>
    <timestep time="8.00">
        <vehicle id="follower" x="633.72" y="751.11" angle="74.99" type="DEFAULT_VEHTYPE@follower" speed="15.74" pos="77.66" lane="E2_0" slope="0.00" acceleration="0.58"/>
        <vehicle id="leader" x="667.25" y="760.10" angle="74.99" type="DEFAULT_VEHTYPE@leader" speed="16.10" pos="112.39" lane="E2_0" slope="0.00" acceleration="0.00"/>
    </timestep>
    <timestep time="8.10">
        <vehicle id="follower" x="635.24" y="751.52" angle="74.99" type="DEFAULT_VEHTYPE@follower" speed="15.76" pos="79.24" lane="E2_0" slope="0.00" acceleration="0.23"/>
        <vehicle id="leader" x="668.81" y="760.52" angle="74.99" type="DEFAULT_VEHTYPE@leader" speed="16.10" pos="114.00" lane="E2_0" slope="0.00" acceleration="0.00"/>
    </timestep>
    <timestep time="8.20">
        <vehicle id="follower" x="636.76" y="751.93" angle="74.99" type="DEFAULT_VEHTYPE@follower" speed="15.81" pos="80.82" lane="E2_0" slope="0.00" acceleration="0.50"/>
        <vehicle id="leader" x="670.36" y="760.93" angle="74.99" type="DEFAULT_VEHTYPE@leader" speed="16.10" pos="115.61" lane="E2_0" slope="0.00" acceleration="0.00"/>
    </timestep>
    <timestep time="8.30">
        <vehicle id="follower" x="638.29" y="752.34" angle="74.99" type="DEFAULT_VEHTYPE@follower" speed="15.77" pos="82.40" lane="E2_0" slope="0.00" acceleration="-0.36"/>
        <vehicle id="leader" x="671.92" y="761.35" angle="74.99" type="DEFAULT_VEHTYPE@leader" speed="16.10" pos="117.22" lane="E2_0" slope="0.00" acceleration="0.00"/>
    </timestep>
    <timestep time="8.40">
        <vehicle id="follower" x="639.82" y="752.75" angle="74.99" type="DEFAULT_VEHTYPE@follower" speed="15.88" pos="83.99" lane="E2_0" slope="0.00" acceleration="1.05"/>
        <vehicle id="leader" x="673.47" y="761.77" angle="74.99" type="DEFAULT_VEHTYPE@leader" speed="16.10" pos="118.83" lane="E2_0" slope="0.00" acceleration="0.00"/>
    </timestep>
    <timestep time="8.50">
        <vehicle id="follower" x="641.35" y="753.16" angle="74.99" type="DEFAULT_VEHTYPE@follower" speed="15.78" pos="85.56" lane="E2_0" slope="0.00" acceleration="-1.03"/>
        <vehicle id="leader" x="675.03" y="762.19" angle="74.99" type="DEFAULT_VEHTYPE@leader" speed="16.10" pos="120.44" lane="E2_0" slope="0.00" acceleration="0.00"/>
    </timestep>
    <timestep time="8.60">
        <vehicle id="follower" x="642.86" y="753.56" angle="74.99" type="DEFAULT_VEHTYPE@follower" speed="15.72" pos="87.14" lane="E2_0" slope="0.00" acceleration="-0.53"/>
        <vehicle id="leader" x="676.58" y="762.60" angle="74.99" type="DEFAULT_VEHTYPE@leader" speed="16.10" pos="122.05" lane="E2_0" slope="0.00" acceleration="0.00"/>
    </timestep>
    <timestep time="8.70">
        <vehicle id="follower" x="644.40" y="753.97" angle="74.99" type="DEFAULT_VEHTYPE@follower" speed="15.92" pos="88.73" lane="E2_0" slope="0.00" acceleration="1.95"/>
        <vehicle id="leader" x="678.14" y="763.02" angle="74.99" type="DEFAULT_VEHTYPE@leader" speed="16.10" pos="123.65" lane="E2_0" slope="0.00" acceleration="0.00"/>
    </timestep>
    <timestep time="8.80">
        <vehicle id="follower" x="645.92" y="754.38" angle="74.99" type="DEFAULT_VEHTYPE@follower" speed="15.75" pos="90.30" lane="E2_0" slope="0.00" acceleration="-1.70"/>
        <vehicle id="leader" x="679.69" y="763.44" angle="74.99" type="DEFAULT_VEHTYPE@leader" speed="16.10" pos="125.26" lane="E2_0" slope="0.00" acceleration="0.00"/>
    </timestep>
    <timestep time="8.90">